 NP
   0.000                  !scissors operator
-2.8823
     2.4657134     0.0000000     0.0000000
    -1.2328567     2.1353716     0.0000000
     0.0000000     0.0000000    26.8850000
 written on 17Sep2021 at 22:03:52 
           5
        1615
    1    1    2    1    1    1    1    1    2    1    1    1    1    1    1
    1    1    2    1    1    1    1    1    1    1    1    1    1    1    2
    1    1    1    1    1    1    1    1    1    1    1    1    1    1    2
    1    1    1    1    1    1    1    1    1    1    1    1    1    1    1
    1    1    2    2    1    1    1    1    1    1    1    1    1    1    1
    1    1    1    1    1    1    1    1    2    1    1    1    1    1    1
    1    1    1    1    1    1    1    1    1    1    1    1    1    1    1
    1    2    1    1    1    1    1    1    1    1    1    1    1    1    1
    1    1    1    1    1    1    1    1    1    1    1    1    2    1    1
    1    1    1    1    1    1    1    1    1    1    1    1    1    1    1
    1    1    1    1    1    1    1    1    1    1    1    2    1    1    1
    1    1    1    1    1    1    1    1    1    1    1    1    1    1    1
    1    1    1    1    1    1    1    1    1    1    1    1    1    2    1
    1    1    1    1    1    1    1    1    1    1    1    1    1    1    1
    1    1    1    1    1    1    1    1    1    1    1    1    1    1    1
    1    1    1    2    1    1    1    1    1    1    1    1    1    1    1
    1    1    1    1    1    1    1    1    1    1    1    1    1    1    1
    1    1    1    1    1    1    1    1    1    1    1    2    1    1    1
    1    1    1    1    1    1    1    1    1    1    1    1    1    1    1
    1    1    1    1    1    1    1    1    1    1    1    1    1    1    1
    1    1    1    1    1    1    1    1    1    1    1    1    1    1    1
    1    1    1    1    1    1    1    1    1    1    1    1    1    1    1
    1    1    1    1    1    1    1    1    1    1    1    1    1    1    1
    1    1    1    1    1    1    1    1    1    1    1    1    1    1    1
    1    1    1    1    1    1    1    1    1    1    1    1    1    1    1
    1    1    1    1    1    1    1    1    1    1    1    1    1    1    1
    1    1    1    1    1    1    1    1    1    1    1    1    1    1    1
    1    1    1    1    1    1    1    1    1    1    1    1    1    1    1
    1    1    1    1    1    1    1    1    1    1    1    1    1    1    1
    1    1    1    1    1    1    1    1    1    1    1    1    1    1    1
    1    1    1    1    1    1    1    1    1    1    1    1    1    1    1
    1    1    1    1    1    1    1    1    1    1    1    1    1    1    1
    1    1    1    1    1    1    1    1    1    1    1    1    1    1    1
    1    1    1    1    1    1    1    1    1    1    1    1    1    1    1
    1    1    1    1    1    1    1    1    1    1    1    1    1    1    1
    1    1    1    1    1    1    1    1    1    1    1    1    1    1    1
    1    1    1    1    1    1    1    1    1    1    1    1    1    1    1
    1    1    1    1    1    1    1    1    1    1    1    1    1    1    1
    1    1    1    1    1    1    1    1    1    1    1    1    1    1    1
    1    1    1    1    1    1    1    1    1    1    1    1    1    1    1
    1    1    1    1    1    1    1    1    1    1    1    1    1    1    1
    1    1    1    1    1    1    1    1    1    1    1    1    1    1    1
    1    1    1    1    1    1    1    1    1    1    1    1    1    1    1
    1    1    1    1    1    1    1    1    1    1    1    1    1    1    1
    1    1    1    1    1    1    1    1    1    1    1    1    1    1    1
    1    1    1    1    1    1    1    1    1    1    1    1    1    1    1
    1    1    1    1    1    1    1    1    1    1    1    1    1    1    1
    1    1    1    1    1    1    1    1    1    1    1    1    1    1    1
    1    1    1    1    1    1    1    1    1    1    1    1    1    1    1
    1    1    1    1    1    1    1    1    1    1    1    1    1    1    1
    1    1    1    1    1    1    1    1    1    1    1    1    1    1    1
    1    1    1    1    1    1    1    1    1    1    1    1    1    1    1
    1    1    1    1    1    1    1    2    1    1    1    1    1    1    1
    1    1    1    1    1    1    1    1    1    1    1    1    1    1    1
    1    1    1    1    1    1    1    1    1    1    1    1    1    1    1
    1    1    2    1    1    1    1    1    1    1    1    1    1    1    1
    1    1    1    1    1    1    1    1    1    1    1    1    1    1    1
    1    1    1    1    1    1    1    1    1    1    1    1    1    1    1
    1    1    1    1    1    1    1    1    1    1    1    1    1    1    1
    1    1    1    1    1    1    1    1    1    1    1    1    1    1    1
    1    1    1    1    1    1    1    1    1    1    1    1    1    1    1
    1    1    1    1    1    1    1    1    1    1    1    1    1    1    1
    1    1    1    1    1    1    1    1    1    1    1    1    1    1    1
    1    1    1    1    1    1    1    1    1    1    1    1    1    1    1
    1    1    1    1    1    1    1    1    1    1    1    1    1    1    1
    1    1    1    1    1    1    1    1    1    1    1    1    1    1    1
    1    1    1    1    1    1    1    1    1    1    1    1    1    1    1
    1    1    1    1    1    1    1    1    1    1    1    1    1    1    1
    1    1    1    1    1    1    1    1    1    1    1    1    1    1    1
    1    1    1    1    1    1    1    1    1    1    1    1    1    1    1
    1    1    1    1    1    1    1    1    1    1    1    1    1    1    1
    1    1    1    1    1    1    1    1    1    1    1    1    1    1    1
    1    1    1    1    1    1    1    1    1    1    1    1    1    1    1
    1    1    1    1    1    1    1    1    1    1    1    1    1    1    1
    1    1    1    1    1    1    1    1    1    1    1    1    1    1    1
    1    1    1    1    1    1    1    1    1    1    1    1    1    1    1
    1    1    1    1    1    1    1    1    1    1    1    1    1    1    1
    1    1    1    1    1    1    1    1    1    1    1    1    1    1    1
    1    1    1    1    1    1    1    1    1    1    1    1    1    1    1
    1    1    1    1    1    1    1    1    1    1    1    1    1    1    1
    1    1    1    1    1    1    1    1    1    1    1    1    1    1    1
    1    1    1    1    1    1    1    1    1    1    1    1    1    1    1
    1    1    1    1    1    1    1    1    1    1    1    1    1    1    1
    1    1    1    1    1    1    1    1    1    1    1    1    1    1    1
    1    1    1    1    1    1    1    1    1    1    1    1    1    1    1
    1    1    1    1    1    1    1    1    1    1    1    1    1    1    1
    1    1    1    1    1    1    1    1    1    1    1    1    1    1    1
    1    1    1    1    1    1    1    1    1    1    1    1    1    1    1
    1    1    1    1    1    1    1    1    1    1    1    1    1    1    1
    1    1    1    1    1    1    1    1    1    1    1    1    1    2    1
    1    1    1    1    1    1    1    1    1    1    1    1    1    1    1
    1    1    1    1    1    1    1    1    1    1    1    1    1    1    1
    1    1    1    1    1    1    2    1    1    1    1    1    1    1    1
    1    1    1    1    1    1    1    1    1    1    1    1    1    1    1
    1    1    1    1    1    1    1    1    1    1    1    2    1    1    1
    1    1    1    1    1    1    1    1    1    1    1    1    1    1    1
    1    1    1    1    1    1    1    1    1    1    1    1    1    2    1
    1    1    1    1    1    1    1    1    1    1    1    1    1    1    1
    1    1    1    1    1    1    1    1    1    1    1    1    2    1    1
    1    1    1    1    1    1    1    1    1    1    1    1    1    1    1
    1    1    1    1    1    1    1    1    2    1    1    1    1    1    1
    1    1    1    1    1    1    1    1    1    1    1    1    1    1    1
    1    2    1    1    1    1    1    1    1    1    1    1    1    1    1
    1    1    1    1    1    1    2    2    1    1    1    1    1    1    1
    1    1    1    1    1    1    1    1    1    1    2    1    1    1    1
    1    1    1    1    1    1    1    1    1    1    2    1    1    1    1
    1    1    1    1    1    1    1    2    1    1    1    1    1    1    1
    1    2    1    1    1    1    1    2    1    1
  -26  -14    0    1    1   -0.000194    0.000110
  -26  -14    0    2    1   -0.000336    0.000045
  -26  -14    0    3    1   -0.000333    0.000033
  -26  -14    0    4    1   -0.000546   -0.000036
  -26  -14    0    5    1    0.000595   -0.000126
  -26  -14    0    1    2    0.000011    0.000142
  -26  -14    0    2    2   -0.000220    0.000180
  -26  -14    0    3    2   -0.000175    0.000129
  -26  -14    0    4    2   -0.001264    0.000137
  -26  -14    0    5    2    0.001163   -0.000422
  -26  -14    0    1    3   -0.000028    0.000144
  -26  -14    0    2    3   -0.000192    0.000150
  -26  -14    0    3    3   -0.000196    0.000115
  -26  -14    0    4    3   -0.000565    0.000127
  -26  -14    0    5    3    0.000595   -0.000317
  -26  -14    0    1    4    0.000587    0.000018
  -26  -14    0    2    4    0.000058    0.000130
  -26  -14    0    3    4    0.000577   -0.000323
  -26  -14    0    4    4    0.001210    0.000312
  -26  -14    0    5    4   -0.004956   -0.002910
  -26  -14    0    1    5   -0.000726   -0.000565
  -26  -14    0    2    5   -0.000010   -0.000769
  -26  -14    0    3    5   -0.000549   -0.000144
  -26  -14    0    4    5    0.003545    0.000745
  -26  -14    0    5    5   -0.000598   -0.000717
  -26  -13    0    1    1   -0.000375    0.000023
  -26  -13    0    2    1   -0.000356   -0.000115
  -26  -13    0    3    1   -0.000390   -0.000082
  -26  -13    0    4    1    0.000371   -0.000099
  -26  -13    0    5    1   -0.000140    0.000170
  -26  -13    0    1    2   -0.000267    0.000143
  -26  -13    0    2    2   -0.000430    0.000047
  -26  -13    0    3    2   -0.000390    0.000060
  -26  -13    0    4    2   -0.000726   -0.000170
  -26  -13    0    5    2    0.000716   -0.000021
  -26  -13    0    1    3   -0.000254    0.000119
  -26  -13    0    2    3   -0.000330    0.000029
  -26  -13    0    3    3   -0.000366    0.000027
  -26  -13    0    4    3    0.000042    0.000001
  -26  -13    0    5    3    0.000096   -0.000071
  -26  -13    0    1    4    0.000206   -0.000215
  -26  -13    0    2    4   -0.000548   -0.000061
  -26  -13    0    3    4   -0.000058   -0.000490
  -26  -13    0    4    4    0.001788   -0.000002
  -26  -13    0    5    4   -0.004402   -0.003543
  -26  -13    0    1    5   -0.000156   -0.000259
  -26  -13    0    2    5    0.000887   -0.000255
  -26  -13    0    3    5    0.000361    0.000336
  -26  -13    0    4    5    0.003974    0.002471
  -26  -13    0    5    5   -0.000608   -0.000095
  -26  -12    0    1    1   -0.000350   -0.000109
  -26  -12    0    2    1   -0.000164   -0.000232
  -26  -12    0    3    1   -0.000244   -0.000182
  -26  -12    0    4    1    0.001133    0.000019
  -26  -12    0    5    1   -0.000693    0.000312
  -26  -12    0    1    2   -0.000429    0.000036
  -26  -12    0    2    2   -0.000412   -0.000148
  -26  -12    0    3    2   -0.000414   -0.000077
  -26  -12    0    4    2    0.000277   -0.000324
  -26  -12    0    5    2   -0.000039    0.000344
  -26  -12    0    1    3   -0.000363    0.000010
  -26  -12    0    2    3   -0.000277   -0.000127
  -26  -12    0    3    3   -0.000349   -0.000098
  -26  -12    0    4    3    0.000897   -0.000004
  -26  -12    0    5    3   -0.000542    0.000153
  -26  -12    0    1    4   -0.000471   -0.000375
  -26  -12    0    2    4   -0.001148   -0.000310
  -26  -12    0    3    4   -0.000765   -0.000568
  -26  -12    0    4    4    0.001390   -0.000777
  -26  -12    0    5    4   -0.002052   -0.002367
  -26  -12    0    1    5    0.000888    0.000279
  -26  -12    0    2    5    0.001735    0.000458
  -26  -12    0    3    5    0.001360    0.000814
  -26  -12    0    4    5    0.003003    0.002431
  -26  -12    0    5    5   -0.000277    0.001132
  -25  -15    0    1    1    0.000096    0.000115
  -25  -15    0    2    1   -0.000025    0.000157
  -25  -15    0    3    1   -0.000022    0.000146
  -25  -15    0    4    1   -0.000398    0.000070
  -25  -15    0    5    1    0.000393   -0.000319
  -25  -15    0    1    2    0.000187    0.000059
  -25  -15    0    2    2    0.000090    0.000152
  -25  -15    0    3    2    0.000131    0.000130
  -25  -15    0    4    2   -0.000389    0.000205
  -25  -15    0    5    2    0.000332   -0.000397
  -25  -15    0    1    3    0.000117    0.000042
  -25  -15    0    2    3    0.000074    0.000108
  -25  -15    0    3    3    0.000087    0.000127
  -25  -15    0    4    3   -0.000114    0.000074
  -25  -15    0    5    3    0.000070   -0.000204
  -25  -15    0    1    4   -0.000144    0.000413
  -25  -15    0    2    4   -0.000212    0.000432
  -25  -15    0    3    4    0.000111    0.000340
  -25  -15    0    4    4   -0.000880    0.000265
  -25  -15    0    5    4   -0.002775    0.000888
  -25  -15    0    1    5    0.000083   -0.000425
  -25  -15    0    2    5    0.000077   -0.000722
  -25  -15    0    3    5   -0.000138   -0.000690
  -25  -15    0    4    5    0.000522   -0.002193
  -25  -15    0    5    5    0.000777   -0.000659
  -25  -14    0    1    1   -0.000085    0.000148
  -25  -14    0    2    1   -0.000202    0.000106
  -25  -14    0    3    1   -0.000228    0.000102
  -25  -14    0    4    1   -0.000114   -0.000034
  -25  -14    0    5    1    0.000168   -0.000164
  -25  -14    0    1    2    0.000066    0.000151
  -25  -14    0    2    2   -0.000106    0.000190
  -25  -14    0    3    2   -0.000095    0.000169
  -25  -14    0    4    2   -0.000625    0.000103
  -25  -14    0    5    2    0.000609   -0.000407
  -25  -14    0    1    3    0.000047    0.000136
  -25  -14    0    2    3   -0.000060    0.000159
  -25  -14    0    3    3   -0.000075    0.000163
  -25  -14    0    4    3   -0.000143    0.000017
  -25  -14    0    5    3    0.000132   -0.000210
  -25  -14    0    1    4   -0.000028    0.000411
  -25  -14    0    2    4   -0.000330    0.000522
  -25  -14    0    3    4    0.000023    0.000204
  -25  -14    0    4    4    0.000093    0.000488
  -25  -14    0    5    4   -0.004386   -0.001211
  -25  -14    0    1    5   -0.000126   -0.000862
  -25  -14    0    2    5    0.000222   -0.001108
  -25  -14    0    3    5   -0.000005   -0.000792
  -25  -14    0    4    5    0.001933   -0.000788
  -25  -14    0    5    5    0.000244   -0.000990
  -25  -13    0    1    1   -0.000264    0.000088
  -25  -13    0    2    1   -0.000260   -0.000031
  -25  -13    0    3    1   -0.000323   -0.000014
  -25  -13    0    4    1    0.000722   -0.000076
  -25  -13    0    5    1   -0.000485    0.000085
  -25  -13    0    1    2   -0.000170    0.000174
  -25  -13    0    2    2   -0.000306    0.000097
  -25  -13    0    3    2   -0.000321    0.000107
  -25  -13    0    4    2   -0.000195   -0.000120
  -25  -13    0    5    2    0.000299   -0.000130
  -25  -13    0    1    3   -0.000123    0.000162
  -25  -13    0    2    3   -0.000188    0.000098
  -25  -13    0    3    3   -0.000240    0.000107
  -25  -13    0    4    3    0.000368   -0.000082
  -25  -13    0    5    3   -0.000267   -0.000029
  -25  -13    0    1    4   -0.000234    0.000333
  -25  -13    0    2    4   -0.000743    0.000471
  -25  -13    0    3    4   -0.000418    0.000031
  -25  -13    0    4    4    0.001098    0.000544
  -25  -13    0    5    4   -0.004558   -0.002275
  -25  -13    0    1    5    0.000159   -0.000932
  -25  -13    0    2    5    0.000816   -0.000964
  -25  -13    0    3    5    0.000641   -0.000483
  -25  -13    0    4    5    0.002874    0.000908
  -25  -13    0    5    5   -0.000295   -0.000837
  -25  -12    0    1    1   -0.000287   -0.000040
  -25  -12    0    2    1   -0.000119   -0.000162
  -25  -12    0    3    1   -0.000227   -0.000137
  -25  -12    0    4    1    0.001539    0.000041
  -25  -12    0    5    1   -0.001048    0.000230
  -25  -12    0    1    2   -0.000354    0.000082
  -25  -12    0    2    2   -0.000337   -0.000088
  -25  -12    0    3    2   -0.000395   -0.000041
  -25  -12    0    4    2    0.000730   -0.000242
  -25  -12    0    5    2   -0.000381    0.000194
  -25  -12    0    1    3   -0.000245    0.000088
  -25  -12    0    2    3   -0.000178   -0.000035
  -25  -12    0    3    3   -0.000270   -0.000015
  -25  -12    0    4    3    0.001214   -0.000079
  -25  -12    0    5    3   -0.000869    0.000156
  -25  -12    0    1    4   -0.000711    0.000176
  -25  -12    0    2    4   -0.001203    0.000225
  -25  -12    0    3    4   -0.000971   -0.000191
  -25  -12    0    4    4    0.001547    0.000021
  -25  -12    0    5    4   -0.002865   -0.001440
  -25  -12    0    1    5    0.000925   -0.000548
  -25  -12    0    2    5    0.001510   -0.000355
  -25  -12    0    3    5    0.001474    0.000114
  -25  -12    0    4    5    0.002674    0.001293
  -25  -12    0    5    5   -0.000659    0.000123
  -25  -11    0    1    1   -0.000118   -0.000162
  -25  -11    0    2    1    0.000141   -0.000193
  -25  -11    0    3    1    0.000009   -0.000194
  -25  -11    0    4    1    0.001625    0.000294
  -25  -11    0    5    1   -0.001011    0.000159
  -25  -11    0    1    2   -0.000347   -0.000089
  -25  -11    0    2    2   -0.000146   -0.000251
  -25  -11    0    3    2   -0.000257   -0.000193
  -25  -11    0    4    2    0.001482   -0.000091
  -25  -11    0    5    2   -0.000885    0.000321
  -25  -11    0    1    3   -0.000204   -0.000046
  -25  -11    0    2    3   -0.000003   -0.000143
  -25  -11    0    3    3   -0.000130   -0.000132
  -25  -11    0    4    3    0.001742    0.000103
  -25  -11    0    5    3   -0.001138    0.000185
  -25  -11    0    1    4   -0.001149   -0.000087
  -25  -11    0    2    4   -0.001315   -0.000210
  -25  -11    0    3    4   -0.001254   -0.000471
  -25  -11    0    4    4    0.001201   -0.000941
  -25  -11    0    5    4   -0.000122    0.000776
  -25  -11    0    1    5    0.001682    0.000088
  -25  -11    0    2    5    0.001749    0.000367
  -25  -11    0    3    5    0.001923    0.000685
  -25  -11    0    4    5    0.001309   -0.000223
  -25  -11    0    5    5   -0.000735    0.001486
  -25  -10    0    1    1    0.000136   -0.000197
  -25  -10    0    2    1    0.000340   -0.000095
  -25  -10    0    3    1    0.000230   -0.000148
  -25  -10    0    4    1    0.000730    0.000536
  -25  -10    0    5    1   -0.000309   -0.000087
  -25  -10    0    1    2   -0.000139   -0.000238
  -25  -10    0    2    2    0.000151   -0.000281
  -25  -10    0    3    2    0.000015   -0.000261
  -25  -10    0    4    2    0.001424    0.000299
  -25  -10    0    5    2   -0.000803    0.000167
  -25  -10    0    1    3   -0.000010   -0.000156
  -25  -10    0    2    3    0.000227   -0.000144
  -25  -10    0    3    3    0.000087   -0.000172
  -25  -10    0    4    3    0.001378    0.000397
  -25  -10    0    5    3   -0.000726    0.000017
  -25  -10    0    1    4   -0.001183   -0.000454
  -25  -10    0    2    4   -0.000828   -0.000707
  -25  -10    0    3    4   -0.000996   -0.000758
  -25  -10    0    4    4    0.000301   -0.001646
  -25  -10    0    5    4    0.002245    0.002853
  -25  -10    0    1    5    0.001836    0.000641
  -25  -10    0    2    5    0.001195    0.000825
  -25  -10    0    3    5    0.001591    0.000955
  -25  -10    0    4    5   -0.000538   -0.002706
  -25  -10    0    5    5   -0.000506    0.002296
  -24  -16    0    1    1    0.000016   -0.000060
  -24  -16    0    2    1    0.000080   -0.000016
  -24  -16    0    3    1    0.000092    0.000033
  -24  -16    0    4    1    0.000056    0.000041
  -24  -16    0    5    1   -0.000094   -0.000106
  -24  -16    0    1    2   -0.000064   -0.000077
  -24  -16    0    2    2    0.000010   -0.000075
  -24  -16    0    3    2    0.000070   -0.000023
  -24  -16    0    4    2    0.000017   -0.000091
  -24  -16    0    5    2   -0.000210    0.000190
  -24  -16    0    1    3   -0.000121   -0.000134
  -24  -16    0    2    3   -0.000018   -0.000134
  -24  -16    0    3    3    0.000006   -0.000076
  -24  -16    0    4    3    0.000117   -0.000046
  -24  -16    0    5    3   -0.000155    0.000111
  -24  -16    0    1    4   -0.000406   -0.000153
  -24  -16    0    2    4   -0.000539   -0.000159
  -24  -16    0    3    4   -0.000397    0.000119
  -24  -16    0    4    4   -0.001079    0.000146
  -24  -16    0    5    4    0.000750    0.002253
  -24  -16    0    1    5    0.000404    0.000601
  -24  -16    0    2    5    0.000590    0.000549
  -24  -16    0    3    5    0.000333    0.000167
  -24  -16    0    4    5   -0.001656   -0.000602
  -24  -16    0    5    5    0.001146    0.000065
  -24  -15    0    1    1    0.000092    0.000043
  -24  -15    0    2    1    0.000061    0.000095
  -24  -15    0    3    1    0.000048    0.000125
  -24  -15    0    4    1   -0.000142    0.000032
  -24  -15    0    5    1    0.000090   -0.000263
  -24  -15    0    1    2    0.000083   -0.000013
  -24  -15    0    2    2    0.000089    0.000046
  -24  -15    0    3    2    0.000110    0.000084
  -24  -15    0    4    2   -0.000071    0.000048
  -24  -15    0    5    2   -0.000039   -0.000193
  -24  -15    0    1    3    0.000042   -0.000064
  -24  -15    0    2    3    0.000091   -0.000012
  -24  -15    0    3    3    0.000085    0.000042
  -24  -15    0    4    3    0.000058    0.000004
  -24  -15    0    5    3   -0.000086   -0.000115
  -24  -15    0    1    4   -0.000466    0.000135
  -24  -15    0    2    4   -0.000451    0.000180
  -24  -15    0    3    4   -0.000341    0.000333
  -24  -15    0    4    4   -0.001540   -0.000042
  -24  -15    0    5    4   -0.000565    0.001922
  -24  -15    0    1    5    0.000442    0.000120
  -24  -15    0    2    5    0.000331   -0.000122
  -24  -15    0    3    5    0.000243   -0.000437
  -24  -15    0    4    5   -0.001320   -0.001977
  -24  -15    0    5    5    0.001364   -0.000089
  -24  -14    0    1    1    0.000013    0.000126
  -24  -14    0    2    1   -0.000061    0.000120
  -24  -14    0    3    1   -0.000096    0.000140
  -24  -14    0    4    1   -0.000041   -0.000050
  -24  -14    0    5    1   -0.000036   -0.000162
  -24  -14    0    1    2    0.000090    0.000097
  -24  -14    0    2    2    0.000001    0.000142
  -24  -14    0    3    2   -0.000001    0.000164
  -24  -14    0    4    2   -0.000220    0.000030
  -24  -14    0    5    2    0.000151   -0.000314
  -24  -14    0    1    3    0.000082    0.000051
  -24  -14    0    2    3    0.000052    0.000096
  -24  -14    0    3    3    0.000028    0.000135
  -24  -14    0    4    3   -0.000086   -0.000047
  -24  -14    0    5    3   -0.000002   -0.000138
  -24  -14    0    1    4   -0.000392    0.000399
  -24  -14    0    2    4   -0.000436    0.000516
  -24  -14    0    3    4   -0.000371    0.000484
  -24  -14    0    4    4   -0.001260    0.000166
  -24  -14    0    5    4   -0.002158    0.000344
  -24  -14    0    1    5    0.000190   -0.000577
  -24  -14    0    2    5    0.000146   -0.000856
  -24  -14    0    3    5    0.000219   -0.000974
  -24  -14    0    4    5   -0.000431   -0.001583
  -24  -14    0    5    5    0.001267   -0.000570
  -24  -13    0    1    1   -0.000129    0.000127
  -24  -13    0    2    1   -0.000145    0.000043
  -24  -13    0    3    1   -0.000199    0.000063
  -24  -13    0    4    1    0.000623   -0.000098
  -24  -13    0    5    1   -0.000595    0.000079
  -24  -13    0    1    2   -0.000053    0.000166
  -24  -13    0    2    2   -0.000150    0.000125
  -24  -13    0    3    2   -0.000187    0.000148
  -24  -13    0    4    2    0.000080   -0.000121
  -24  -13    0    5    2   -0.000056   -0.000133
  -24  -13    0    1    3   -0.000002    0.000135
  -24  -13    0    2    3   -0.000052    0.000113
  -24  -13    0    3    3   -0.000093    0.000143
  -24  -13    0    4    3    0.000189   -0.000151
  -24  -13    0    5    3   -0.000282    0.000040
  -24  -13    0    1    4   -0.000480    0.000598
  -24  -13    0    2    4   -0.000673    0.000732
  -24  -13    0    3    4   -0.000652    0.000530
  -24  -13    0    4    4   -0.000414    0.000604
  -24  -13    0    5    4   -0.002986   -0.000921
  -24  -13    0    1    5    0.000176   -0.001101
  -24  -13    0    2    5    0.000374   -0.001207
  -24  -13    0    3    5    0.000578   -0.001114
  -24  -13    0    4    5    0.000568   -0.000151
  -24  -13    0    5    5    0.000767   -0.000999
  -24  -12    0    1    1   -0.000187    0.000037
  -24  -12    0    2    1   -0.000064   -0.000070
  -24  -12    0    3    1   -0.000154   -0.000055
  -24  -12    0    4    1    0.001499   -0.000016
  -24  -12    0    5    1   -0.001205    0.000257
  -24  -12    0    1    2   -0.000218    0.000126
  -24  -12    0    2    2   -0.000213   -0.000007
  -24  -12    0    3    2   -0.000286    0.000027
  -24  -12    0    4    2    0.000897   -0.000232
  -24  -12    0    5    2   -0.000647    0.000159
  -24  -12    0    1    3   -0.000110    0.000127
  -24  -12    0    2    3   -0.000079    0.000037
  -24  -12    0    3    3   -0.000146    0.000064
  -24  -12    0    4    3    0.000948   -0.000185
  -24  -12    0    5    3   -0.000865    0.000253
  -24  -12    0    1    4   -0.000799    0.000662
  -24  -12    0    2    4   -0.001031    0.000707
  -24  -12    0    3    4   -0.001061    0.000409
  -24  -12    0    4    4    0.000499    0.000695
  -24  -12    0    5    4   -0.002320   -0.000539
  -24  -12    0    1    5    0.000622   -0.001149
  -24  -12    0    2    5    0.000887   -0.000993
  -24  -12    0    3    5    0.001208   -0.000769
  -24  -12    0    4    5    0.001086    0.000662
  -24  -12    0    5    5   -0.000032   -0.000789
  -24  -11    0    1    1   -0.000069   -0.000081
  -24  -11    0    2    1    0.000153   -0.000123
  -24  -11    0    3    1    0.000038   -0.000133
  -24  -11    0    4    1    0.001853    0.000192
  -24  -11    0    5    1   -0.001295    0.000226
  -24  -11    0    1    2   -0.000251   -0.000016
  -24  -11    0    2    2   -0.000084   -0.000163
  -24  -11    0    3    2   -0.000200   -0.000130
  -24  -11    0    4    2    0.001709   -0.000124
  -24  -11    0    5    2   -0.001166    0.000305
  -24  -11    0    1    3   -0.000108    0.000034
  -24  -11    0    2    3    0.000040   -0.000058
  -24  -11    0    3    3   -0.000051   -0.000045
  -24  -11    0    4    3    0.001673   -0.000059
  -24  -11    0    5    3   -0.001274    0.000314
  -24  -11    0    1    4   -0.001131    0.000512
  -24  -11    0    2    4   -0.001150    0.000385
  -24  -11    0    3    4   -0.001266    0.000088
  -24  -11    0    4    4    0.001034    0.000122
  -24  -11    0    5    4   -0.000380    0.001506
  -24  -11    0    1    5    0.001246   -0.000724
  -24  -11    0    2    5    0.001202   -0.000408
  -24  -11    0    3    5    0.001644   -0.000155
  -24  -11    0    4    5    0.000701   -0.000311
  -24  -11    0    5    5   -0.000849    0.000167
  -24  -10    0    1    1    0.000159   -0.000141
  -24  -10    0    2    1    0.000349   -0.000059
  -24  -10    0    3    1    0.000250   -0.000118
  -24  -10    0    4    1    0.001183    0.000407
  -24  -10    0    5    1   -0.000601   -0.000016
  -24  -10    0    1    2   -0.000093   -0.000173
  -24  -10    0    2    2    0.000175   -0.000222
  -24  -10    0    3    2    0.000034   -0.000224
  -24  -10    0    4    2    0.001798    0.000224
  -24  -10    0    5    2   -0.001103    0.000171
  -24  -10    0    1    3    0.000043   -0.000073
  -24  -10    0    2    3    0.000243   -0.000081
  -24  -10    0    3    3    0.000130   -0.000106
  -24  -10    0    4    3    0.001666    0.000195
  -24  -10    0    5    3   -0.001025    0.000140
  -24  -10    0    1    4   -0.001128    0.000118
  -24  -10    0    2    4   -0.000726   -0.000153
  -24  -10    0    3    4   -0.000970   -0.000379
  -24  -10    0    4    4    0.000997   -0.000766
  -24  -10    0    5    4    0.001715    0.003817
  -24  -10    0    1    5    0.001488   -0.000106
  -24  -10    0    2    5    0.000878    0.000158
  -24  -10    0    3    5    0.001433    0.000389
  -24  -10    0    4    5   -0.000353   -0.002701
  -24  -10    0    5    5   -0.001412    0.001235
  -24   -9    0    1    1    0.000333   -0.000093
  -24   -9    0    2    1    0.000366    0.000086
  -24   -9    0    3    1    0.000320   -0.000017
  -24   -9    0    4    1   -0.000304    0.000479
  -24   -9    0    5    1    0.000560   -0.000326
  -24   -9    0    1    2    0.000165   -0.000235
  -24   -9    0    2    2    0.000387   -0.000124
  -24   -9    0    3    2    0.000262   -0.000189
  -24   -9    0    4    2    0.000854    0.000625
  -24   -9    0    5    2   -0.000348   -0.000169
  -24   -9    0    1    3    0.000239   -0.000111
  -24   -9    0    2    3    0.000361   -0.000001
  -24   -9    0    3    3    0.000276   -0.000075
  -24   -9    0    4    3    0.000656    0.000432
  -24   -9    0    5    3   -0.000081   -0.000194
  -24   -9    0    1    4   -0.000584   -0.000427
  -24   -9    0    2    4    0.000213   -0.000676
  -24   -9    0    3    4   -0.000162   -0.000817
  -24   -9    0    4    4    0.000533   -0.001254
  -24   -9    0    5    4    0.002689    0.004596
  -24   -9    0    1    5    0.000969    0.000374
  -24   -9    0    2    5   -0.000085    0.000421
  -24   -9    0    3    5    0.000507    0.000634
  -24   -9    0    4    5   -0.001308   -0.004772
  -24   -9    0    5    5   -0.001439    0.001546
  -24   -8    0    1    1    0.000310    0.000035
  -24   -8    0    2    1    0.000139    0.000213
  -24   -8    0    3    1    0.000188    0.000102
  -24   -8    0    4    1   -0.001774    0.000330
  -24   -8    0    5    1    0.001507   -0.000489
  -24   -8    0    1    2    0.000351   -0.000150
  -24   -8    0    2    2    0.000384    0.000081
  -24   -8    0    3    2    0.000340   -0.000043
  -24   -8    0    4    2   -0.000702    0.000804
  -24   -8    0    5    2    0.000690   -0.000478
  -24   -8    0    1    3    0.000326   -0.000046
  -24   -8    0    2    3    0.000269    0.000134
  -24   -8    0    3    3    0.000253    0.000026
  -24   -8    0    4    3   -0.000901    0.000499
  -24   -8    0    5    3    0.001062   -0.000496
  -24   -8    0    1    4    0.000354   -0.000901
  -24   -8    0    2    4    0.001227   -0.000919
  -24   -8    0    3    4    0.000807   -0.000997
  -24   -8    0    4    4   -0.000093   -0.000945
  -24   -8    0    5    4    0.001997    0.002993
  -24   -8    0    1    5   -0.000162    0.000562
  -24   -8    0    2    5   -0.001185    0.000370
  -24   -8    0    3    5   -0.000710    0.000578
  -24   -8    0    4    5   -0.001522   -0.004686
  -24   -8    0    5    5   -0.000756    0.000804
  -23  -17    0    1    1   -0.000285   -0.000131
  -23  -17    0    2    1   -0.000157   -0.000186
  -23  -17    0    3    1   -0.000159   -0.000153
  -23  -17    0    4    1    0.000194   -0.000018
  -23  -17    0    5    1   -0.000068    0.000192
  -23  -17    0    1    2   -0.000318   -0.000047
  -23  -17    0    2    2   -0.000315   -0.000136
  -23  -17    0    3    2   -0.000250   -0.000122
  -23  -17    0    4    2   -0.000564   -0.000213
  -23  -17    0    5    2    0.000489    0.000449
  -23  -17    0    1    3   -0.000349   -0.000060
  -23  -17    0    2    3   -0.000303   -0.000145
  -23  -17    0    3    3   -0.000290   -0.000157
  -23  -17    0    4    3   -0.000080    0.000030
  -23  -17    0    5    3    0.000230    0.000127
  -23  -17    0    1    4    0.000175   -0.000638
  -23  -17    0    2    4   -0.000483   -0.000586
  -23  -17    0    3    4   -0.000140   -0.000555
  -23  -17    0    4    4    0.001179    0.000258
  -23  -17    0    5    4    0.000912   -0.001044
  -23  -17    0    1    5   -0.000127    0.000605
  -23  -17    0    2    5    0.000848    0.000728
  -23  -17    0    3    5    0.000153    0.000814
  -23  -17    0    4    5    0.000071    0.002982
  -23  -17    0    5    5   -0.000253    0.000166
  -23  -16    0    1    1   -0.000092   -0.000140
  -23  -16    0    2    1    0.000056   -0.000128
  -23  -16    0    3    1    0.000018   -0.000077
  -23  -16    0    4    1    0.000385    0.000039
  -23  -16    0    5    1   -0.000221   -0.000078
  -23  -16    0    1    2   -0.000227   -0.000119
  -23  -16    0    2    2   -0.000118   -0.000173
  -23  -16    0    3    2   -0.000087   -0.000115
  -23  -16    0    4    2    0.000080   -0.000165
  -23  -16    0    5    2   -0.000113    0.000271
  -23  -16    0    1    3   -0.000243   -0.000148
  -23  -16    0    2    3   -0.000091   -0.000193
  -23  -16    0    3    3   -0.000113   -0.000162
  -23  -16    0    4    3    0.000454    0.000031
  -23  -16    0    5    3   -0.000226    0.000022
  -23  -16    0    1    4   -0.000417   -0.000512
  -23  -16    0    2    4   -0.000679   -0.000492
  -23  -16    0    3    4   -0.000502   -0.000330
  -23  -16    0    4    4    0.000014    0.000074
  -23  -16    0    5    4    0.001823    0.001139
  -23  -16    0    1    5    0.000650    0.000855
  -23  -16    0    2    5    0.001028    0.000936
  -23  -16    0    3    5    0.000580    0.000731
  -23  -16    0    4    5   -0.001250    0.000932
  -23  -16    0    5    5    0.000348    0.000401
  -23  -15    0    1    1    0.000073   -0.000066
  -23  -15    0    2    1    0.000140   -0.000008
  -23  -15    0    3    1    0.000090    0.000036
  -23  -15    0    4    1    0.000059    0.000045
  -23  -15    0    5    1    0.000005   -0.000274
  -23  -15    0    1    2   -0.000042   -0.000111
  -23  -15    0    2    2    0.000065   -0.000091
  -23  -15    0    3    2    0.000055   -0.000025
  -23  -15    0    4    2    0.000188   -0.000041
  -23  -15    0    5    2   -0.000201   -0.000072
  -23  -15    0    1    3   -0.000041   -0.000153
  -23  -15    0    2    3    0.000099   -0.000124
  -23  -15    0    3    3    0.000048   -0.000079
  -23  -15    0    4    3    0.000359    0.000054
  -23  -15    0    5    3   -0.000161   -0.000172
  -23  -15    0    1    4   -0.000566   -0.000280
  -23  -15    0    2    4   -0.000489   -0.000239
  -23  -15    0    3    4   -0.000505   -0.000022
  -23  -15    0    4    4   -0.001237   -0.000394
  -23  -15    0    5    4    0.001836    0.001960
  -23  -15    0    1    5    0.000761    0.000698
  -23  -15    0    2    5    0.000564    0.000581
  -23  -15    0    3    5    0.000454    0.000210
  -23  -15    0    4    5   -0.002157   -0.001155
  -23  -15    0    5    5    0.001001    0.000630
  -23  -14    0    1    1    0.000095    0.000041
  -23  -14    0    2    1    0.000064    0.000078
  -23  -14    0    3    1    0.000020    0.000110
  -23  -14    0    4    1   -0.000240   -0.000019
  -23  -14    0    5    1    0.000111   -0.000224
  -23  -14    0    1    2    0.000079   -0.000017
  -23  -14    0    2    2    0.000099    0.000036
  -23  -14    0    3    2    0.000061    0.000088
  -23  -14    0    4    2   -0.000035    0.000010
  -23  -14    0    5    2   -0.000029   -0.000262
  -23  -14    0    1    3    0.000098   -0.000068
  -23  -14    0    2    3    0.000143   -0.000005
  -23  -14    0    3    3    0.000092    0.000036
  -23  -14    0    4    3   -0.000109    0.000011
  -23  -14    0    5    3    0.000123   -0.000217
  -23  -14    0    1    4   -0.000444    0.000040
  -23  -14    0    2    4   -0.000251    0.000134
  -23  -14    0    3    4   -0.000441    0.000327
  -23  -14    0    4    4   -0.001909   -0.000443
  -23  -14    0    5    4    0.000864    0.001111
  -23  -14    0    1    5    0.000343    0.000092
  -23  -14    0    2    5   -0.000057   -0.000163
  -23  -14    0    3    5    0.000154   -0.000543
  -23  -14    0    4    5   -0.002300   -0.001700
  -23  -14    0    5    5    0.001508    0.000330
  -23  -13    0    1    1   -0.000006    0.000102
  -23  -13    0    2    1   -0.000048    0.000072
  -23  -13    0    3    1   -0.000078    0.000097
  -23  -13    0    4    1    0.000014   -0.000078
  -23  -13    0    5    1   -0.000244    0.000023
  -23  -13    0    1    2    0.000046    0.000093
  -23  -13    0    2    2   -0.000005    0.000101
  -23  -13    0    3    2   -0.000044    0.000138
  -23  -13    0    4    2   -0.000036   -0.000071
  -23  -13    0    5    2   -0.000073   -0.000150
  -23  -13    0    1    3    0.000086    0.000042
  -23  -13    0    2    3    0.000056    0.000071
  -23  -13    0    3    3    0.000022    0.000105
  -23  -13    0    4    3   -0.000332   -0.000097
  -23  -13    0    5    3    0.000128   -0.000037
  -23  -13    0    1    4   -0.000382    0.000402
  -23  -13    0    2    4   -0.000266    0.000518
  -23  -13    0    3    4   -0.000564    0.000637
  -23  -13    0    4    4   -0.001727    0.000159
  -23  -13    0    5    4   -0.000283   -0.000233
  -23  -13    0    1    5   -0.000061   -0.000655
  -23  -13    0    2    5   -0.000302   -0.000831
  -23  -13    0    3    5    0.000132   -0.001121
  -23  -13    0    4    5   -0.001812   -0.000598
  -23  -13    0    5    5    0.001623   -0.000467
  -23  -12    0    1    1   -0.000093    0.000077
  -23  -12    0    2    1   -0.000048   -0.000001
  -23  -12    0    3    1   -0.000078    0.000017
  -23  -12    0    4    1    0.000793   -0.000040
  -23  -12    0    5    1   -0.000886    0.000274
  -23  -12    0    1    2   -0.000077    0.000125
  -23  -12    0    2    2   -0.000092    0.000050
  -23  -12    0    3    2   -0.000145    0.000080
  -23  -12    0    4    2    0.000516   -0.000180
  -23  -12    0    5    2   -0.000532    0.000145
  -23  -12    0    1    3   -0.000005    0.000099
  -23  -12    0    2    3   -0.000026    0.000059
  -23  -12    0    3    3   -0.000043    0.000089
  -23  -12    0    4    3    0.000079   -0.000174
  -23  -12    0    5    3   -0.000329    0.000242
  -23  -12    0    1    4   -0.000559    0.000711
  -23  -12    0    2    4   -0.000536    0.000759
  -23  -12    0    3    4   -0.000866    0.000785
  -23  -12    0    4    4   -0.000982    0.000926
  -23  -12    0    5    4   -0.000616   -0.000433
  -23  -12    0    1    5   -0.000015   -0.001120
  -23  -12    0    2    5   -0.000044   -0.001042
  -23  -12    0    3    5    0.000498   -0.001227
  -23  -12    0    4    5   -0.001082    0.000750
  -23  -12    0    5    5    0.001074   -0.001142
  -23  -11    0    1    1   -0.000040   -0.000005
  -23  -11    0    2    1    0.000108   -0.000056
  -23  -11    0    3    1    0.000061   -0.000059
  -23  -11    0    4    1    0.001471    0.000103
  -23  -11    0    5    1   -0.001246    0.000341
  -23  -11    0    1    2   -0.000136    0.000047
  -23  -11    0    2    2   -0.000036   -0.000067
  -23  -11    0    3    2   -0.000109   -0.000047
  -23  -11    0    4    2    0.001349   -0.000153
  -23  -11    0    5    2   -0.001105    0.000361
  -23  -11    0    1    3   -0.000047    0.000070
  -23  -11    0    2    3    0.000022   -0.000003
  -23  -11    0    3    3    0.000006    0.000018
  -23  -11    0    4    3    0.000882   -0.000127
  -23  -11    0    5    3   -0.000910    0.000413
  -23  -11    0    1    4   -0.000854    0.000834
  -23  -11    0    2    4   -0.000755    0.000728
  -23  -11    0    3    4   -0.001075    0.000667
  -23  -11    0    4    4   -0.000077    0.001170
  -23  -11    0    5    4    0.000167    0.001188
  -23  -11    0    1    5    0.000435   -0.001089
  -23  -11    0    2    5    0.000356   -0.000781
  -23  -11    0    3    5    0.000931   -0.000879
  -23  -11    0    4    5   -0.000603    0.000682
  -23  -11    0    5    5    0.000012   -0.001115
  -23  -10    0    1    1    0.000151   -0.000069
  -23  -10    0    2    1    0.000305   -0.000022
  -23  -10    0    3    1    0.000254   -0.000065
  -23  -10    0    4    1    0.001339    0.000251
  -23  -10    0    5    1   -0.000856    0.000163
  -23  -10    0    1    2   -0.000037   -0.000085
  -23  -10    0    2    2    0.000167   -0.000139
  -23  -10    0    3    2    0.000074   -0.000150
  -23  -10    0    4    2    0.001753    0.000081
  -23  -10    0    5    2   -0.001237    0.000299
  -23  -10    0    1    3    0.000051   -0.000006
  -23  -10    0    2    3    0.000190   -0.000034
  -23  -10    0    3    3    0.000156   -0.000040
  -23  -10    0    4    3    0.001367    0.000034
  -23  -10    0    5    3   -0.001039    0.000337
  -23  -10    0    1    4   -0.000930    0.000667
  -23  -10    0    2    4   -0.000548    0.000411
  -23  -10    0    3    4   -0.000861    0.000272
  -23  -10    0    4    4    0.000633    0.000698
  -23  -10    0    5    4    0.001523    0.003667
  -23  -10    0    1    5    0.000809   -0.000690
  -23  -10    0    2    5    0.000375   -0.000352
  -23  -10    0    3    5    0.000944   -0.000357
  -23  -10    0    4    5   -0.000670   -0.001237
  -23  -10    0    5    5   -0.001200   -0.000451
  -23   -9    0    1    1    0.000336   -0.000052
  -23   -9    0    2    1    0.000365    0.000093
  -23   -9    0    3    1    0.000337    0.000009
  -23   -9    0    4    1    0.000237    0.000276
  -23   -9    0    5    1    0.000208   -0.000168
  -23   -9    0    1    2    0.000182   -0.000166
  -23   -9    0    2    2    0.000373   -0.000081
  -23   -9    0    3    2    0.000278   -0.000145
  -23   -9    0    4    2    0.001172    0.000408
  -23   -9    0    5    2   -0.000617   -0.000037
  -23   -9    0    1    3    0.000233   -0.000051
  -23   -9    0    2    3    0.000336    0.000019
  -23   -9    0    3    3    0.000300   -0.000028
  -23   -9    0    4    3    0.000959    0.000195
  -23   -9    0    5    3   -0.000423    0.000028
  -23   -9    0    1    4   -0.000509    0.000222
  -23   -9    0    2    4    0.000193   -0.000050
  -23   -9    0    3    4   -0.000123   -0.000268
  -23   -9    0    4    4    0.000966   -0.000037
  -23   -9    0    5    4    0.002311    0.005040
  -23   -9    0    1    5    0.000609   -0.000237
  -23   -9    0    2    5   -0.000211   -0.000086
  -23   -9    0    3    5    0.000308    0.000043
  -23   -9    0    4    5   -0.000945   -0.003706
  -23   -9    0    5    5   -0.002090    0.000198
  -23   -8    0    1    1    0.000343    0.000046
  -23   -8    0    2    1    0.000176    0.000208
  -23   -8    0    3    1    0.000209    0.000113
  -23   -8    0    4    1   -0.001239    0.000126
  -23   -8    0    5    1    0.001332   -0.000453
  -23   -8    0    1    2    0.000366   -0.000118
  -23   -8    0    2    2    0.000390    0.000090
  -23   -8    0    3    2    0.000353   -0.000024
  -23   -8    0    4    2   -0.000269    0.000600
  -23   -8    0    5    2    0.000511   -0.000444
  -23   -8    0    1    3    0.000348   -0.000015
  -23   -8    0    2    3    0.000298    0.000130
  -23   -8    0    3    3    0.000287    0.000051
  -23   -8    0    4    3   -0.000250    0.000230
  -23   -8    0    5    3    0.000650   -0.000358
  -23   -8    0    1    4    0.000365   -0.000339
  -23   -8    0    2    4    0.001143   -0.000420
  -23   -8    0    3    4    0.000856   -0.000714
  -23   -8    0    4    4    0.000997   -0.000457
  -23   -8    0    5    4    0.001724    0.003836
  -23   -8    0    1    5   -0.000237    0.000042
  -23   -8    0    2    5   -0.001094   -0.000066
  -23   -8    0    3    5   -0.000714    0.000217
  -23   -8    0    4    5   -0.000972   -0.004608
  -23   -8    0    5    5   -0.002067    0.000270
  -23   -7    0    1    1    0.000122    0.000156
  -23   -7    0    2    1   -0.000177    0.000226
  -23   -7    0    3    1   -0.000075    0.000165
  -23   -7    0    4    1   -0.002150   -0.000124
  -23   -7    0    5    1    0.001814   -0.000489
  -23   -7    0    1    2    0.000345    0.000043
  -23   -7    0    2    2    0.000157    0.000264
  -23   -7    0    3    2    0.000213    0.000138
  -23   -7    0    4    2   -0.001773    0.000489
  -23   -7    0    5    2    0.001497   -0.000645
  -23   -7    0    1    3    0.000259    0.000085
  -23   -7    0    2    3    0.000041    0.000215
  -23   -7    0    3    3    0.000082    0.000138
  -23   -7    0    4    3   -0.001511    0.000106
  -23   -7    0    5    3    0.001497   -0.000599
  -23   -7    0    1    4    0.001266   -0.000754
  -23   -7    0    2    4    0.001692   -0.000509
  -23   -7    0    3    4    0.001536   -0.000841
  -23   -7    0    4    4    0.000685   -0.000429
  -23   -7    0    5    4    0.000046    0.000298
  -23   -7    0    1    5   -0.001244    0.000146
  -23   -7    0    2    5   -0.001617   -0.000126
  -23   -7    0    3    5   -0.001501    0.000256
  -23   -7    0    4    5   -0.000518   -0.002686
  -23   -7    0    5    5   -0.001006   -0.000129
  -23   -6    0    1    1   -0.000218    0.000191
  -23   -6    0    2    1   -0.000482    0.000108
  -23   -6    0    3    1   -0.000351    0.000118
  -23   -6    0    4    1   -0.001926   -0.000315
  -23   -6    0    5    1    0.001401   -0.000211
  -23   -6    0    1    2    0.000104    0.000214
  -23   -6    0    2    2   -0.000219    0.000312
  -23   -6    0    3    2   -0.000073    0.000231
  -23   -6    0    4    2   -0.002427    0.000104
  -23   -6    0    5    2    0.001767   -0.000467
  -23   -6    0    1    3   -0.000023    0.000176
  -23   -6    0    2    3   -0.000307    0.000193
  -23   -6    0    3    3   -0.000218    0.000161
  -23   -6    0    4    3   -0.001977   -0.000086
  -23   -6    0    5    3    0.001572   -0.000535
  -23   -6    0    1    4    0.001620   -0.000818
  -23   -6    0    2    4    0.001368   -0.000307
  -23   -6    0    3    4    0.001468   -0.000586
  -23   -6    0    4    4   -0.000018   -0.000293
  -23   -6    0    5    4   -0.001696   -0.003653
  -23   -6    0    1    5   -0.001693    0.000213
  -23   -6    0    2    5   -0.001259   -0.000049
  -23   -6    0    3    5   -0.001505    0.000289
  -23   -6    0    4    5    0.000344    0.001333
  -23   -6    0    5    5    0.000708   -0.000371
  -22  -18    0    1    1   -0.000318    0.000075
  -22  -18    0    2    1   -0.000367   -0.000014
  -22  -18    0    3    1   -0.000359   -0.000053
  -22  -18    0    4    1   -0.000085    0.000118
  -22  -18    0    5    1    0.000278    0.000004
  -22  -18    0    1    2   -0.000155    0.000145
  -22  -18    0    2    2   -0.000343    0.000127
  -22  -18    0    3    2   -0.000301    0.000048
  -22  -18    0    4    2   -0.001017    0.000184
  -22  -18    0    5    2    0.001135   -0.000200
  -22  -18    0    1    3   -0.000198    0.000183
  -22  -18    0    2    3   -0.000336    0.000151
  -22  -18    0    3    3   -0.000324    0.000083
  -22  -18    0    4    3   -0.000363    0.000310
  -22  -18    0    5    3    0.000447   -0.000333
  -22  -18    0    1    4    0.000546   -0.000318
  -22  -18    0    2    4   -0.000255   -0.000148
  -22  -18    0    3    4    0.000352   -0.000525
  -22  -18    0    4    4    0.001857   -0.000393
  -22  -18    0    5    4   -0.002426   -0.003381
  -22  -18    0    1    5   -0.000455   -0.000226
  -22  -18    0    2    5    0.000551   -0.000473
  -22  -18    0    3    5   -0.000146    0.000176
  -22  -18    0    4    5    0.003498    0.002032
  -22  -18    0    5    5   -0.001004    0.000107
  -22  -17    0    1    1   -0.000340   -0.000052
  -22  -17    0    2    1   -0.000212   -0.000151
  -22  -17    0    3    1   -0.000248   -0.000147
  -22  -17    0    4    1    0.000753    0.000068
  -22  -17    0    5    1   -0.000411    0.000111
  -22  -17    0    1    2   -0.000351    0.000055
  -22  -17    0    2    2   -0.000384   -0.000057
  -22  -17    0    3    2   -0.000356   -0.000076
  -22  -17    0    4    2   -0.000252   -0.000066
  -22  -17    0    5    2    0.000415    0.000200
  -22  -17    0    1    3   -0.000348    0.000085
  -22  -17    0    2    3   -0.000327   -0.000023
  -22  -17    0    3    3   -0.000350   -0.000055
  -22  -17    0    4    3    0.000477    0.000169
  -22  -17    0    5    3   -0.000221   -0.000063
  -22  -17    0    1    4   -0.000102   -0.000415
  -22  -17    0    2    4   -0.000821   -0.000293
  -22  -17    0    3    4   -0.000328   -0.000580
  -22  -17    0    4    4    0.002016    0.000205
  -22  -17    0    5    4   -0.000661   -0.002420
  -22  -17    0    1    5    0.000380    0.000043
  -22  -17    0    2    5    0.001392    0.000120
  -22  -17    0    3    5    0.000674    0.000575
  -22  -17    0    4    5    0.002202    0.003179
  -22  -17    0    5    5   -0.000950   -0.000040
  -22  -16    0    1    1   -0.000160   -0.000146
  -22  -16    0    2    1    0.000048   -0.000175
  -22  -16    0    3    1   -0.000033   -0.000150
  -22  -16    0    4    1    0.001033    0.000096
  -22  -16    0    5    1   -0.000577   -0.000076
  -22  -16    0    1    2   -0.000330   -0.000084
  -22  -16    0    2    2   -0.000200   -0.000194
  -22  -16    0    3    2   -0.000217   -0.000158
  -22  -16    0    4    2    0.000510   -0.000135
  -22  -16    0    5    2   -0.000265    0.000223
  -22  -16    0    1    3   -0.000296   -0.000062
  -22  -16    0    2    3   -0.000125   -0.000154
  -22  -16    0    3    3   -0.000188   -0.000153
  -22  -16    0    4    3    0.001128    0.000138
  -22  -16    0    5    3   -0.000674   -0.000067
  -22  -16    0    1    4   -0.000626   -0.000460
  -22  -16    0    2    4   -0.000948   -0.000421
  -22  -16    0    3    4   -0.000668   -0.000546
  -22  -16    0    4    4    0.001202    0.000127
  -22  -16    0    5    4    0.001492   -0.000186
  -22  -16    0    1    5    0.001144    0.000537
  -22  -16    0    2    5    0.001598    0.000738
  -22  -16    0    3    5    0.001072    0.000885
  -22  -16    0    4    5    0.000401    0.001950
  -22  -16    0    5    5   -0.000695    0.000366
  -22  -15    0    1    1    0.000068   -0.000143
  -22  -15    0    2    1    0.000218   -0.000092
  -22  -15    0    3    1    0.000121   -0.000068
  -22  -15    0    4    1    0.000523    0.000110
  -22  -15    0    5    1   -0.000152   -0.000316
  -22  -15    0    1    2   -0.000136   -0.000167
  -22  -15    0    2    2    0.000049   -0.000194
  -22  -15    0    3    2   -0.000012   -0.000137
  -22  -15    0    4    2    0.000682   -0.000041
  -22  -15    0    5    2   -0.000412   -0.000050
  -22  -15    0    1    3   -0.000084   -0.000158
  -22  -15    0    2    3    0.000120   -0.000166
  -22  -15    0    3    3    0.000021   -0.000152
  -22  -15    0    4    3    0.001019    0.000167
  -22  -15    0    5    3   -0.000498   -0.000260
  -22  -15    0    1    4   -0.000695   -0.000442
  -22  -15    0    2    4   -0.000560   -0.000444
  -22  -15    0    3    4   -0.000567   -0.000392
  -22  -15    0    4    4   -0.000109   -0.000544
  -22  -15    0    5    4    0.002987    0.001436
  -22  -15    0    1    5    0.001236    0.000837
  -22  -15    0    2    5    0.000965    0.000905
  -22  -15    0    3    5    0.000783    0.000765
  -22  -15    0    4    5   -0.001406   -0.000353
  -22  -15    0    5    5   -0.000101    0.001034
  -22  -14    0    1    1    0.000170   -0.000061
  -22  -14    0    2    1    0.000192    0.000015
  -22  -14    0    3    1    0.000120    0.000029
  -22  -14    0    4    1   -0.000324    0.000057
  -22  -14    0    5    1    0.000379   -0.000361
  -22  -14    0    1    2    0.000063   -0.000135
  -22  -14    0    2    2    0.000176   -0.000083
  -22  -14    0    3    2    0.000102   -0.000034
  -22  -14    0    4    2    0.000233    0.000067
  -22  -14    0    5    2   -0.000088   -0.000301
  -22  -14    0    1    3    0.000118   -0.000149
  -22  -14    0    2    3    0.000229   -0.000079
  -22  -14    0    3    3    0.000133   -0.000070
  -22  -14    0    4    3    0.000189    0.000152
  -22  -14    0    5    3    0.000139   -0.000388
  -22  -14    0    1    4   -0.000378   -0.000319
  -22  -14    0    2    4    0.000016   -0.000302
  -22  -14    0    3    4   -0.000276   -0.000101
  -22  -14    0    4    4   -0.001294   -0.001014
  -22  -14    0    5    4    0.003198    0.001277
  -22  -14    0    1    5    0.000593    0.000650
  -22  -14    0    2    5   -0.000096    0.000508
  -22  -14    0    3    5    0.000092    0.000188
  -22  -14    0    4    5   -0.002695   -0.001680
  -22  -14    0    5    5    0.000684    0.001228
  -22  -13    0    1    1    0.000104    0.000030
  -22  -13    0    2    1    0.000039    0.000060
  -22  -13    0    3    1    0.000017    0.000072
  -22  -13    0    4    1   -0.000754   -0.000012
  -22  -13    0    5    1    0.000448   -0.000160
  -22  -13    0    1    2    0.000127   -0.000025
  -22  -13    0    2    2    0.000130    0.000035
  -22  -13    0    3    2    0.000068    0.000065
  -22  -13    0    4    2   -0.000290    0.000064
  -22  -13    0    5    2    0.000205   -0.000277
  -22  -13    0    1    3    0.000170   -0.000061
  -22  -13    0    2    3    0.000152    0.000016
  -22  -13    0    3    3    0.000106    0.000021
  -22  -13    0    4    3   -0.000710    0.000057
  -22  -13    0    5    3    0.000645   -0.000285
  -22  -13    0    1    4   -0.000035   -0.000066
  -22  -13    0    2    4    0.000344   -0.000016
  -22  -13    0    3    4   -0.000146    0.000284
  -22  -13    0    4    4   -0.001835   -0.000613
  -22  -13    0    5    4    0.002316   -0.000169
  -22  -13    0    1    5   -0.000279    0.000066
  -22  -13    0    2    5   -0.000891   -0.000126
  -22  -13    0    3    5   -0.000442   -0.000527
  -22  -13    0    4    5   -0.003086   -0.000978
  -22  -13    0    5    5    0.001410    0.000527
  -22  -12    0    1    1   -0.000026    0.000063
  -22  -12    0    2    1   -0.000068    0.000029
  -22  -12    0    3    1   -0.000044    0.000044
  -22  -12    0    4    1   -0.000385   -0.000002
  -22  -12    0    5    1   -0.000061    0.000137
  -22  -12    0    1    2    0.000047    0.000067
  -22  -12    0    2    2    0.000003    0.000066
  -22  -12    0    3    2   -0.000025    0.000083
  -22  -12    0    4    2   -0.000280   -0.000027
  -22  -12    0    5    2    0.000037    0.000008
  -22  -12    0    1    3    0.000077    0.000026
  -22  -12    0    2    3    0.000001    0.000047
  -22  -12    0    3    3    0.000015    0.000057
  -22  -12    0    4    3   -0.000960   -0.000042
  -22  -12    0    5    3    0.000554    0.000001
  -22  -12    0    1    4    0.000012    0.000279
  -22  -12    0    2    4    0.000236    0.000311
  -22  -12    0    3    4   -0.000312    0.000643
  -22  -12    0    4    4   -0.001663    0.000535
  -22  -12    0    5    4    0.001321   -0.001211
  -22  -12    0    1    5   -0.000745   -0.000530
  -22  -12    0    2    5   -0.001005   -0.000539
  -22  -12    0    3    5   -0.000461   -0.000975
  -22  -12    0    4    5   -0.002714    0.000966
  -22  -12    0    5    5    0.001658   -0.000721
  -22  -11    0    1    1   -0.000059    0.000030
  -22  -11    0    2    1   -0.000010   -0.000019
  -22  -11    0    3    1    0.000029   -0.000009
  -22  -11    0    4    1    0.000441    0.000108
  -22  -11    0    5    1   -0.000692    0.000327
  -22  -11    0    1    2   -0.000051    0.000069
  -22  -11    0    2    2   -0.000033    0.000006
  -22  -11    0    3    2   -0.000045    0.000014
  -22  -11    0    4    2    0.000355   -0.000071
  -22  -11    0    5    2   -0.000524    0.000322
  -22  -11    0    1    3   -0.000030    0.000053
  -22  -11    0    2    3   -0.000060    0.000014
  -22  -11    0    3    3   -0.000003    0.000032
  -22  -11    0    4    3   -0.000398   -0.000045
  -22  -11    0    5    3   -0.000047    0.000279
  -22  -11    0    1    4   -0.000246    0.000601
  -22  -11    0    2    4   -0.000105    0.000537
  -22  -11    0    3    4   -0.000585    0.000827
  -22  -11    0    4    4   -0.001045    0.001641
  -22  -11    0    5    4    0.000989   -0.000457
  -22  -11    0    1    5   -0.000570   -0.000788
  -22  -11    0    2    5   -0.000593   -0.000539
  -22  -11    0    3    5   -0.000091   -0.000982
  -22  -11    0    4    5   -0.001927    0.002229
  -22  -11    0    5    5    0.001130   -0.001709
  -22  -10    0    1    1    0.000066   -0.000016
  -22  -10    0    2    1    0.000169   -0.000007
  -22  -10    0    3    1    0.000201   -0.000021
  -22  -10    0    4    1    0.000942    0.000216
  -22  -10    0    5    1   -0.000813    0.000293
  -22  -10    0    1    2   -0.000023   -0.000009
  -22  -10    0    2    2    0.000090   -0.000062
  -22  -10    0    3    2    0.000079   -0.000071
  -22  -10    0    4    2    0.001061    0.000027
  -22  -10    0    5    2   -0.000956    0.000411
  -22  -10    0    1    3   -0.000015    0.000021
  -22  -10    0    2    3    0.000038   -0.000019
  -22  -10    0    3    3    0.000101   -0.000006
  -22  -10    0    4    3    0.000439    0.000050
  -22  -10    0    5    3   -0.000593    0.000371
  -22  -10    0    1    4   -0.000506    0.000755
  -22  -10    0    2    4   -0.000248    0.000566
  -22  -10    0    3    4   -0.000598    0.000732
  -22  -10    0    4    4   -0.000247    0.002009
  -22  -10    0    5    4    0.001372    0.001892
  -22  -10    0    1    5   -0.000083   -0.000672
  -22  -10    0    2    5   -0.000199   -0.000311
  -22  -10    0    3    5    0.000194   -0.000698
  -22  -10    0    4    5   -0.001200    0.001434
  -22  -10    0    5    5   -0.000024   -0.001927
  -22   -9    0    1    1    0.000259   -0.000012
  -22   -9    0    2    1    0.000295    0.000081
  -22   -9    0    3    1    0.000320    0.000034
  -22   -9    0    4    1    0.000574    0.000180
  -22   -9    0    5    1   -0.000184    0.000054
  -22   -9    0    1    2    0.000148   -0.000086
  -22   -9    0    2    2    0.000285   -0.000042
  -22   -9    0    3    2    0.000263   -0.000087
  -22   -9    0    4    2    0.001099    0.000217
  -22   -9    0    5    2   -0.000746    0.000187
  -22   -9    0    1    3    0.000135   -0.000013
  -22   -9    0    2    3    0.000206    0.000010
  -22   -9    0    3    3    0.000254    0.000000
  -22   -9    0    4    3    0.000776    0.000131
  -22   -9    0    5    3   -0.000538    0.000223
  -22   -9    0    1    4   -0.000387    0.000648
  -22   -9    0    2    4    0.000104    0.000414
  -22   -9    0    3    4   -0.000117    0.000380
  -22   -9    0    4    4    0.000505    0.001600
  -22   -9    0    5    4    0.001797    0.004050
  -22   -9    0    1    5    0.000130   -0.000425
  -22   -9    0    2    5   -0.000285   -0.000193
  -22   -9    0    3    5   -0.000015   -0.000407
  -22   -9    0    4    5   -0.000732   -0.000990
  -22   -9    0    5    5   -0.001387   -0.001546
  -22   -8    0    1    1    0.000334    0.000058
  -22   -8    0    2    1    0.000211    0.000184
  -22   -8    0    3    1    0.000245    0.000121
  -22   -8    0    4    1   -0.000476   -0.000044
  -22   -8    0    5    1    0.000806   -0.000250
  -22   -8    0    1    2    0.000335   -0.000072
  -22   -8    0    2    2    0.000354    0.000083
  -22   -8    0    3    2    0.000353    0.000002
  -22   -8    0    4    2    0.000205    0.000328
  -22   -8    0    5    2    0.000129   -0.000224
  -22   -8    0    1    3    0.000292    0.000005
  -22   -8    0    2    3    0.000272    0.000099
  -22   -8    0    3    3    0.000300    0.000063
  -22   -8    0    4    3    0.000270    0.000070
  -22   -8    0    5    3    0.000145   -0.000085
  -22   -8    0    1    4    0.000238    0.000314
  -22   -8    0    2    4    0.000829    0.000201
  -22   -8    0    3    4    0.000719   -0.000071
  -22   -8    0    4    4    0.001125    0.000874
  -22   -8    0    5    4    0.001377    0.004005
  -22   -8    0    1    5   -0.000269   -0.000299
  -22   -8    0    2    5   -0.000832   -0.000326
  -22   -8    0    3    5   -0.000689   -0.000261
  -22   -8    0    4    5   -0.000394   -0.003048
  -22   -8    0    5    5   -0.002244   -0.001078
  -22   -7    0    1    1    0.000181    0.000148
  -22   -7    0    2    1   -0.000082    0.000208
  -22   -7    0    3    1   -0.000027    0.000170
  -22   -7    0    4    1   -0.001413   -0.000348
  -22   -7    0    5    1    0.001424   -0.000423
  -22   -7    0    1    2    0.000357    0.000048
  -22   -7    0    2    2    0.000187    0.000235
  -22   -7    0    3    2    0.000229    0.000144
  -22   -7    0    4    2   -0.001119    0.000219
  -22   -7    0    5    2    0.001136   -0.000556
  -22   -7    0    1    3    0.000290    0.000080
  -22   -7    0    2    3    0.000118    0.000180
  -22   -7    0    3    3    0.000149    0.000141
  -22   -7    0    4    3   -0.000676   -0.000146
  -22   -7    0    5    3    0.000923   -0.000377
  -22   -7    0    1    4    0.001069   -0.000084
  -22   -7    0    2    4    0.001401    0.000067
  -22   -7    0    3    4    0.001414   -0.000406
  -22   -7    0    4    4    0.001466    0.000201
  -22   -7    0    5    4   -0.000010    0.001178
  -22   -7    0    1    5   -0.001046   -0.000315
  -22   -7    0    2    5   -0.001327   -0.000536
  -22   -7    0    3    5   -0.001339   -0.000184
  -22   -7    0    4    5   -0.000041   -0.002759
  -22   -7    0    5    5   -0.002053   -0.000724
  -22   -6    0    1    1   -0.000149    0.000181
  -22   -6    0    2    1   -0.000410    0.000107
  -22   -6    0    3    1   -0.000347    0.000126
  -22   -6    0    4    1   -0.001481   -0.000531
  -22   -6    0    5    1    0.001198   -0.000329
  -22   -6    0    1    2    0.000139    0.000201
  -22   -6    0    2    2   -0.000173    0.000291
  -22   -6    0    3    2   -0.000076    0.000238
  -22   -6    0    4    2   -0.001959   -0.000093
  -22   -6    0    5    2    0.001595   -0.000574
  -22   -6    0    1    3    0.000067    0.000158
  -22   -6    0    2    3   -0.000191    0.000173
  -22   -6    0    3    3   -0.000153    0.000167
  -22   -6    0    4    3   -0.001250   -0.000389
  -22   -6    0    5    3    0.001139   -0.000472
  -22   -6    0    1    4    0.001523   -0.000349
  -22   -6    0    2    4    0.001244    0.000058
  -22   -6    0    3    4    0.001433   -0.000487
  -22   -6    0    4    4    0.001264   -0.000458
  -22   -6    0    5    4   -0.001710   -0.002955
  -22   -6    0    1    5   -0.001536   -0.000288
  -22   -6    0    2    5   -0.001155   -0.000514
  -22   -6    0    3    5   -0.001354   -0.000009
  -22   -6    0    4    5    0.000448    0.000156
  -22   -6    0    5    5   -0.000831   -0.000181
  -22   -5    0    1    1   -0.000456    0.000110
  -22   -5    0    2    1   -0.000542   -0.000082
  -22   -5    0    3    1   -0.000512   -0.000004
  -22   -5    0    4    1   -0.000591   -0.000433
  -22   -5    0    5    1    0.000293    0.000002
  -22   -5    0    1    2   -0.000219    0.000271
  -22   -5    0    2    2   -0.000510    0.000180
  -22   -5    0    3    2   -0.000388    0.000203
  -22   -5    0    4    2   -0.001702   -0.000412
  -22   -5    0    5    2    0.001214   -0.000233
  -22   -5    0    1    3   -0.000264    0.000169
  -22   -5    0    2    3   -0.000451    0.000056
  -22   -5    0    3    3   -0.000426    0.000102
  -22   -5    0    4    3   -0.000914   -0.000466
  -22   -5    0    5    3    0.000580   -0.000292
  -22   -5    0    1    4    0.001142   -0.000377
  -22   -5    0    2    4    0.000210    0.000087
  -22   -5    0    3    4    0.000611   -0.000338
  -22   -5    0    4    4    0.000442   -0.001249
  -22   -5    0    5    4   -0.002710   -0.005814
  -22   -5    0    1    5   -0.001148   -0.000048
  -22   -5    0    2    5   -0.000112   -0.000126
  -22   -5    0    3    5   -0.000498    0.000309
  -22   -5    0    4    5    0.000899    0.003869
  -22   -5    0    5    5    0.000942    0.000856
  -22   -4    0    1    1   -0.000530   -0.000042
  -22   -4    0    2    1   -0.000377   -0.000251
  -22   -4    0    3    1   -0.000411   -0.000154
  -22   -4    0    4    1    0.000616   -0.000049
  -22   -4    0    5    1   -0.000646    0.000349
  -22   -4    0    1    2   -0.000501    0.000187
  -22   -4    0    2    2   -0.000591   -0.000054
  -22   -4    0    3    2   -0.000511    0.000041
  -22   -4    0    4    2   -0.000520   -0.000496
  -22   -4    0    5    2    0.000293    0.000265
  -22   -4    0    1    3   -0.000492    0.000081
  -22   -4    0    2    3   -0.000479   -0.000117
  -22   -4    0    3    3   -0.000492   -0.000034
  -22   -4    0    4    3    0.000131   -0.000257
  -22   -4    0    5    3   -0.000361    0.000063
  -22   -4    0    1    4   -0.000020   -0.000229
  -22   -4    0    2    4   -0.001222    0.000007
  -22   -4    0    3    4   -0.000653   -0.000130
  -22   -4    0    4    4   -0.000835   -0.001941
  -22   -4    0    5    4   -0.002407   -0.005574
  -22   -4    0    1    5    0.000121    0.000356
  -22   -4    0    2    5    0.001353    0.000448
  -22   -4    0    3    5    0.000852    0.000632
  -22   -4    0    4    5    0.001169    0.005708
  -22   -4    0    5    5    0.002316    0.002071
  -21  -19    0    1    1   -0.000024    0.000211
  -21  -19    0    2    1   -0.000204    0.000238
  -21  -19    0    3    1   -0.000189    0.000203
  -21  -19    0    4    1   -0.000469    0.000310
  -21  -19    0    5    1    0.000389   -0.000584
  -21  -19    0    1    2    0.000166    0.000142
  -21  -19    0    2    2   -0.000007    0.000276
  -21  -19    0    3    2    0.000011    0.000217
  -21  -19    0    4    2   -0.000719    0.000540
  -21  -19    0    5    2    0.000596   -0.000859
  -21  -19    0    1    3    0.000104    0.000149
  -21  -19    0    2    3   -0.000028    0.000255
  -21  -19    0    3    3   -0.000033    0.000241
  -21  -19    0    4    3   -0.000476    0.000356
  -21  -19    0    5    3    0.000232   -0.000624
  -21  -19    0    1    4    0.000096    0.000025
  -21  -19    0    2    4   -0.000131    0.000200
  -21  -19    0    3    4    0.000245   -0.000043
  -21  -19    0    4    4   -0.000422   -0.000919
  -21  -19    0    5    4   -0.004155    0.000088
  -21  -19    0    1    5   -0.000174   -0.000188
  -21  -19    0    2    5   -0.000066   -0.000826
  -21  -19    0    3    5   -0.000125   -0.000384
  -21  -19    0    4    5    0.003085   -0.003084
  -21  -19    0    5    5    0.000295    0.000191
  -21  -18    0    1    1   -0.000259    0.000199
  -21  -18    0    2    1   -0.000338    0.000112
  -21  -18    0    3    1   -0.000338    0.000093
  -21  -18    0    4    1    0.000271    0.000183
  -21  -18    0    5    1   -0.000217   -0.000170
  -21  -18    0    1    2   -0.000074    0.000241
  -21  -18    0    2    2   -0.000277    0.000251
  -21  -18    0    3    2   -0.000250    0.000194
  -21  -18    0    4    2   -0.000572    0.000326
  -21  -18    0    5    2    0.000585   -0.000516
  -21  -18    0    1    3   -0.000103    0.000253
  -21  -18    0    2    3   -0.000243    0.000245
  -21  -18    0    3    3   -0.000246    0.000228
  -21  -18    0    4    3   -0.000101    0.000257
  -21  -18    0    5    3   -0.000039   -0.000401
  -21  -18    0    1    4   -0.000028    0.000046
  -21  -18    0    2    4   -0.000602    0.000322
  -21  -18    0    3    4   -0.000168   -0.000087
  -21  -18    0    4    4    0.000727   -0.000610
  -21  -18    0    5    4   -0.004153   -0.002439
  -21  -18    0    1    5   -0.000004   -0.000682
  -21  -18    0    2    5    0.000677   -0.001126
  -21  -18    0    3    5    0.000422   -0.000512
  -21  -18    0    4    5    0.003825    0.000092
  -21  -18    0    5    5   -0.000191   -0.000068
  -21  -17    0    1    1   -0.000336    0.000076
  -21  -17    0    2    1   -0.000230   -0.000056
  -21  -17    0    3    1   -0.000275   -0.000052
  -21  -17    0    4    1    0.001284    0.000135
  -21  -17    0    5    1   -0.000981    0.000090
  -21  -17    0    1    2   -0.000312    0.000192
  -21  -17    0    2    2   -0.000383    0.000072
  -21  -17    0    3    2   -0.000373    0.000051
  -21  -17    0    4    2    0.000232    0.000053
  -21  -17    0    5    2   -0.000046   -0.000031
  -21  -17    0    1    3   -0.000287    0.000217
  -21  -17    0    2    3   -0.000298    0.000103
  -21  -17    0    3    3   -0.000327    0.000099
  -21  -17    0    4    3    0.000827    0.000162
  -21  -17    0    5    3   -0.000747   -0.000081
  -21  -17    0    1    4   -0.000555    0.000067
  -21  -17    0    2    4   -0.001178    0.000286
  -21  -17    0    3    4   -0.000758   -0.000164
  -21  -17    0    4    4    0.001545    0.000111
  -21  -17    0    5    4   -0.002712   -0.002789
  -21  -17    0    1    5    0.000760   -0.000721
  -21  -17    0    2    5    0.001614   -0.000756
  -21  -17    0    3    5    0.001242   -0.000174
  -21  -17    0    4    5    0.003392    0.002423
  -21  -17    0    5    5   -0.000541   -0.000358
  -21  -16    0    1    1   -0.000185   -0.000070
  -21  -16    0    2    1    0.000048   -0.000145
  -21  -16    0    3    1   -0.000052   -0.000136
  -21  -16    0    4    1    0.001798    0.000172
  -21  -16    0    5    1   -0.001216    0.000009
  -21  -16    0    1    2   -0.000358    0.000026
  -21  -16    0    2    2   -0.000236   -0.000130
  -21  -16    0    3    2   -0.000281   -0.000110
  -21  -16    0    4    2    0.001151   -0.000070
  -21  -16    0    5    2   -0.000745    0.000167
  -21  -16    0    1    3   -0.000288    0.000073
  -21  -16    0    2    3   -0.000128   -0.000059
  -21  -16    0    3    3   -0.000202   -0.000053
  -21  -16    0    4    3    0.001722    0.000173
  -21  -16    0    5    3   -0.001314    0.000005
  -21  -16    0    1    4   -0.001031    0.000011
  -21  -16    0    2    4   -0.001331    0.000080
  -21  -16    0    3    4   -0.001035   -0.000288
  -21  -16    0    4    4    0.001586    0.000337
  -21  -16    0    5    4   -0.000149   -0.001041
  -21  -16    0    1    5    0.001585   -0.000255
  -21  -16    0    2    5    0.002019    0.000016
  -21  -16    0    3    5    0.001688    0.000403
  -21  -16    0    4    5    0.002016    0.002283
  -21  -16    0    5    5   -0.000930   -0.000085
  -21  -15    0    1    1    0.000080   -0.000144
  -21  -15    0    2    1    0.000290   -0.000113
  -21  -15    0    3    1    0.000162   -0.000120
  -21  -15    0    4    1    0.001304    0.000199
  -21  -15    0    5    1   -0.000634   -0.000265
  -21  -15    0    1    2   -0.000186   -0.000139
  -21  -15    0    2    2    0.000049   -0.000219
  -21  -15    0    3    2   -0.000052   -0.000183
  -21  -15    0    4    2    0.001449    0.000008
  -21  -15    0    5    2   -0.000889   -0.000022
  -21  -15    0    1    3   -0.000090   -0.000079
  -21  -15    0    2    3    0.000149   -0.000130
  -21  -15    0    3    3    0.000027   -0.000133
  -21  -15    0    4    3    0.001838    0.000252
  -21  -15    0    5    3   -0.001161   -0.000188
  -21  -15    0    1    4   -0.001017   -0.000137
  -21  -15    0    2    4   -0.000821   -0.000201
  -21  -15    0    3    4   -0.000763   -0.000400
  -21  -15    0    4    4    0.000939   -0.000285
  -21  -15    0    5    4    0.002363    0.001038
  -21  -15    0    1    5    0.001775    0.000367
  -21  -15    0    2    5    0.001457    0.000638
  -21  -15    0    3    5    0.001328    0.000782
  -21  -15    0    4    5    0.000243    0.000132
  -21  -15    0    5    5   -0.001116    0.000782
  -21  -14    0    1    1    0.000259   -0.000118
  -21  -14    0    2    1    0.000323   -0.000017
  -21  -14    0    3    1    0.000217   -0.000043
  -21  -14    0    4    1    0.000035    0.000139
  -21  -14    0    5    1    0.000375   -0.000450
  -21  -14    0    1    2    0.000066   -0.000197
  -21  -14    0    2    2    0.000260   -0.000159
  -21  -14    0    3    2    0.000137   -0.000137
  -21  -14    0    4    2    0.000831    0.000161
  -21  -14    0    5    2   -0.000339   -0.000344
  -21  -14    0    1    3    0.000155   -0.000146
  -21  -14    0    2    3    0.000323   -0.000088
  -21  -14    0    3    3    0.000193   -0.000115
  -21  -14    0    4    3    0.000914    0.000282
  -21  -14    0    5    3   -0.000258   -0.000444
  -21  -14    0    1    4   -0.000458   -0.000309
  -21  -14    0    2    4    0.000098   -0.000416
  -21  -14    0    3    4   -0.000142   -0.000403
  -21  -14    0    4    4    0.000060   -0.001160
  -21  -14    0    5    4    0.003758    0.001545
  -21  -14    0    1    5    0.001046    0.000693
  -21  -14    0    2    5    0.000165    0.000739
  -21  -14    0    3    5    0.000304    0.000684
  -21  -14    0    4    5   -0.001467   -0.001922
  -21  -14    0    5    5   -0.000805    0.001552
  -21  -13    0    1    1    0.000231   -0.000038
  -21  -13    0    2    1    0.000142    0.000050
  -21  -13    0    3    1    0.000104    0.000022
  -21  -13    0    4    1   -0.001161    0.000032
  -21  -13    0    5    1    0.001056   -0.000390
  -21  -13    0    1    2    0.000209   -0.000131
  -21  -13    0    2    2    0.000258   -0.000028
  -21  -13    0    3    2    0.000165   -0.000030
  -21  -13    0    4    2   -0.000268    0.000228
  -21  -13    0    5    2    0.000432   -0.000468
  -21  -13    0    1    3    0.000265   -0.000113
  -21  -13    0    2    3    0.000271   -0.000000
  -21  -13    0    3    3    0.000190   -0.000044
  -21  -13    0    4    3   -0.000534    0.000199
  -21  -13    0    5    3    0.000804   -0.000520
  -21  -13    0    1    4    0.000276   -0.000393
  -21  -13    0    2    4    0.000870   -0.000464
  -21  -13    0    3    4    0.000381   -0.000236
  -21  -13    0    4    4   -0.000642   -0.001319
  -21  -13    0    5    4    0.003624    0.000048
  -21  -13    0    1    5   -0.000210    0.000550
  -21  -13    0    2    5   -0.001108    0.000417
  -21  -13    0    3    5   -0.000769    0.000215
  -21  -13    0    4    5   -0.002584   -0.001910
  -21  -13    0    5    5   -0.000041    0.001428
  -21  -12    0    1    1    0.000047    0.000022
  -21  -12    0    2    1   -0.000086    0.000041
  -21  -12    0    3    1   -0.000039    0.000031
  -21  -12    0    4    1   -0.001493    0.000006
  -21  -12    0    5    1    0.000941   -0.000148
  -21  -12    0    1    2    0.000161   -0.000017
  -21  -12    0    2    2    0.000091    0.000061
  -21  -12    0    3    2    0.000063    0.000044
  -21  -12    0    4    2   -0.001020    0.000168
  -21  -12    0    5    2    0.000770   -0.000276
  -21  -12    0    1    3    0.000173   -0.000034
  -21  -12    0    2    3    0.000049    0.000046
  -21  -12    0    3    3    0.000052    0.000010
  -21  -12    0    4    3   -0.001572    0.000077
  -21  -12    0    5    3    0.001292   -0.000358
  -21  -12    0    1    4    0.000699   -0.000310
  -21  -12    0    2    4    0.001069   -0.000332
  -21  -12    0    3    4    0.000476    0.000073
  -21  -12    0    4    4   -0.000942   -0.000363
  -21  -12    0    5    4    0.002499   -0.002058
  -21  -12    0    1    5   -0.001222    0.000162
  -21  -12    0    2    5   -0.001666    0.000083
  -21  -12    0    3    5   -0.001287   -0.000253
  -21  -12    0    4    5   -0.002836    0.000351
  -21  -12    0    5    5    0.000872    0.000270
  -21  -11    0    1    1   -0.000106    0.000027
  -21  -11    0    2    1   -0.000171   -0.000009
  -21  -11    0    3    1   -0.000067    0.000003
  -21  -11    0    4    1   -0.000866    0.000123
  -21  -11    0    5    1    0.000231    0.000099
  -21  -11    0    1    2    0.000015    0.000051
  -21  -11    0    2    2   -0.000065    0.000053
  -21  -11    0    3    2   -0.000027    0.000038
  -21  -11    0    4    2   -0.000902    0.000087
  -21  -11    0    5    2    0.000429    0.000077
  -21  -11    0    1    3   -0.000017    0.000018
  -21  -11    0    2    3   -0.000154    0.000023
  -21  -11    0    3    3   -0.000063    0.000014
  -21  -11    0    4    3   -0.001584    0.000048
  -21  -11    0    5    3    0.000945   -0.000085
  -21  -11    0    1    4    0.000592   -0.000062
  -21  -11    0    2    4    0.000701   -0.000085
  -21  -11    0    3    4    0.000182    0.000412
  -21  -11    0    4    4   -0.000910    0.001174
  -21  -11    0    5    4    0.001394   -0.002766
  -21  -11    0    1    5   -0.001446   -0.000103
  -21  -11    0    2    5   -0.001370    0.000045
  -21  -11    0    3    5   -0.001106   -0.000435
  -21  -11    0    4    5   -0.002299    0.003108
  -21  -11    0    5    5    0.001358   -0.001268
  -21  -10    0    1    1   -0.000091    0.000004
  -21  -10    0    2    1   -0.000056   -0.000023
  -21  -10    0    3    1    0.000055   -0.000007
  -21  -10    0    4    1    0.000077    0.000282
  -21  -10    0    5    1   -0.000398    0.000211
  -21  -10    0    1    2   -0.000062    0.000035
  -21  -10    0    2    2   -0.000061   -0.000004
  -21  -10    0    3    2    0.000013   -0.000015
  -21  -10    0    4    2   -0.000134    0.000096
  -21  -10    0    5    2   -0.000226    0.000326
  -21  -10    0    1    3   -0.000129    0.000018
  -21  -10    0    2    3   -0.000177   -0.000023
  -21  -10    0    3    3   -0.000042   -0.000007
  -21  -10    0    4    3   -0.000741    0.000148
  -21  -10    0    5    3    0.000166    0.000124
  -21  -10    0    1    4    0.000156    0.000254
  -21  -10    0    2    4    0.000182    0.000175
  -21  -10    0    3    4   -0.000135    0.000638
  -21  -10    0    4    4   -0.000656    0.002357
  -21  -10    0    5    4    0.000888   -0.001224
  -21  -10    0    1    5   -0.000957   -0.000095
  -21  -10    0    2    5   -0.000673    0.000222
  -21  -10    0    3    5   -0.000605   -0.000357
  -21  -10    0    4    5   -0.001330    0.004138
  -21  -10    0    5    5    0.001063   -0.002349
  -21   -9    0    1    1    0.000078    0.000004
  -21   -9    0    2    1    0.000129    0.000038
  -21   -9    0    3    1    0.000213    0.000037
  -21   -9    0    4    1    0.000518    0.000287
  -21   -9    0    5    1   -0.000390    0.000149
  -21   -9    0    1    2    0.000026   -0.000019
  -21   -9    0    2    2    0.000095   -0.000019
  -21   -9    0    3    2    0.000168   -0.000038
  -21   -9    0    4    2    0.000519    0.000180
  -21   -9    0    5    2   -0.000547    0.000300
  -21   -9    0    1    3   -0.000060   -0.000003
  -21   -9    0    2    3   -0.000024   -0.000025
  -21   -9    0    3    3    0.000099   -0.000004
  -21   -9    0    4    3    0.000177    0.000252
  -21   -9    0    5    3   -0.000350    0.000175
  -21   -9    0    1    4   -0.000149    0.000501
  -21   -9    0    2    4    0.000003    0.000376
  -21   -9    0    3    4   -0.000082    0.000662
  -21   -9    0    4    4   -0.000216    0.002656
  -21   -9    0    5    4    0.000876    0.001437
  -21   -9    0    1    5   -0.000337    0.000012
  -21   -9    0    2    5   -0.000218    0.000269
  -21   -9    0    3    5   -0.000334   -0.000269
  -21   -9    0    4    5   -0.000387    0.002624
  -21   -9    0    5    5    0.000063   -0.002638
  -21   -8    0    1    1    0.000242    0.000056
  -21   -8    0    2    1    0.000189    0.000132
  -21   -8    0    3    1    0.000243    0.000115
  -21   -8    0    4    1    0.000170    0.000027
  -21   -8    0    5    1    0.000208   -0.000029
  -21   -8    0    1    2    0.000208   -0.000029
  -21   -8    0    2    2    0.000241    0.000056
  -21   -8    0    3    2    0.000297    0.000018
  -21   -8    0    4    2    0.000423    0.000199
  -21   -8    0    5    2   -0.000193    0.000029
  -21   -8    0    1    3    0.000121    0.000005
  -21   -8    0    2    3    0.000144    0.000039
  -21   -8    0    3    3    0.000228    0.000048
  -21   -8    0    4    3    0.000462    0.000178
  -21   -8    0    5    3   -0.000221    0.000078
  -21   -8    0    1    4    0.000027    0.000586
  -21   -8    0    2    4    0.000330    0.000509
  -21   -8    0    3    4    0.000425    0.000501
  -21   -8    0    4    4    0.000416    0.002212
  -21   -8    0    5    4    0.000688    0.002951
  -21   -8    0    1    5   -0.000178   -0.000063
  -21   -8    0    2    5   -0.000327   -0.000051
  -21   -8    0    3    5   -0.000556   -0.000355
  -21   -8    0    4    5    0.000286   -0.000129
  -21   -8    0    5    5   -0.001131   -0.002372
  -21   -7    0    1    1    0.000218    0.000130
  -21   -7    0    2    1    0.000034    0.000174
  -21   -7    0    3    1    0.000062    0.000164
  -21   -7    0    4    1   -0.000510   -0.000396
  -21   -7    0    5    1    0.000794   -0.000199
  -21   -7    0    1    2    0.000310    0.000046
[...]
   24   10    0    2    1   -0.000093    0.000173
   24   10    0    3    1    0.000043    0.000073
   24   10    0    4    1   -0.001128   -0.000118
   24   10    0    5    1    0.001488    0.000106
   24   10    0    1    2    0.000349    0.000059
   24   10    0    2    2    0.000175    0.000222
   24   10    0    3    2    0.000243    0.000081
   24   10    0    4    2   -0.000726    0.000153
   24   10    0    5    2    0.000878   -0.000158
   24   10    0    1    3    0.000250    0.000118
   24   10    0    2    3    0.000034    0.000224
   24   10    0    3    3    0.000130    0.000106
   24   10    0    4    3   -0.000970    0.000379
   24   10    0    5    3    0.001433   -0.000389
   24   10    0    1    4    0.001183   -0.000407
   24   10    0    2    4    0.001798   -0.000224
   24   10    0    3    4    0.001666   -0.000195
   24   10    0    4    4    0.000997    0.000766
   24   10    0    5    4   -0.000353    0.002701
   24   10    0    1    5   -0.000601    0.000016
   24   10    0    2    5   -0.001103   -0.000171
   24   10    0    3    5   -0.001025   -0.000140
   24   10    0    4    5    0.001715   -0.003817
   24   10    0    5    5   -0.001412   -0.001235
   24   11    0    1    1   -0.000069    0.000081
   24   11    0    2    1   -0.000251    0.000016
   24   11    0    3    1   -0.000108   -0.000034
   24   11    0    4    1   -0.001131   -0.000512
   24   11    0    5    1    0.001246    0.000724
   24   11    0    1    2    0.000153    0.000123
   24   11    0    2    2   -0.000084    0.000163
   24   11    0    3    2    0.000040    0.000058
   24   11    0    4    2   -0.001150   -0.000385
   24   11    0    5    2    0.001202    0.000408
   24   11    0    1    3    0.000038    0.000133
   24   11    0    2    3   -0.000200    0.000130
   24   11    0    3    3   -0.000051    0.000045
   24   11    0    4    3   -0.001266   -0.000088
   24   11    0    5    3    0.001644    0.000155
   24   11    0    1    4    0.001853   -0.000192
   24   11    0    2    4    0.001709    0.000124
   24   11    0    3    4    0.001673    0.000059
   24   11    0    4    4    0.001034   -0.000122
   24   11    0    5    4    0.000701    0.000311
   24   11    0    1    5   -0.001295   -0.000226
   24   11    0    2    5   -0.001166   -0.000305
   24   11    0    3    5   -0.001274   -0.000314
   24   11    0    4    5   -0.000380   -0.001506
   24   11    0    5    5   -0.000849   -0.000167
   24   12    0    1    1   -0.000187   -0.000037
   24   12    0    2    1   -0.000218   -0.000126
   24   12    0    3    1   -0.000110   -0.000127
   24   12    0    4    1   -0.000799   -0.000662
   24   12    0    5    1    0.000622    0.001149
   24   12    0    1    2   -0.000064    0.000070
   24   12    0    2    2   -0.000213    0.000007
   24   12    0    3    2   -0.000079   -0.000037
   24   12    0    4    2   -0.001031   -0.000707
   24   12    0    5    2    0.000887    0.000993
   24   12    0    1    3   -0.000154    0.000055
   24   12    0    2    3   -0.000286   -0.000027
   24   12    0    3    3   -0.000146   -0.000064
   24   12    0    4    3   -0.001061   -0.000409
   24   12    0    5    3    0.001208    0.000769
   24   12    0    1    4    0.001499    0.000016
   24   12    0    2    4    0.000897    0.000232
   24   12    0    3    4    0.000948    0.000185
   24   12    0    4    4    0.000499   -0.000695
   24   12    0    5    4    0.001086   -0.000662
   24   12    0    1    5   -0.001205   -0.000257
   24   12    0    2    5   -0.000647   -0.000159
   24   12    0    3    5   -0.000865   -0.000253
   24   12    0    4    5   -0.002320    0.000539
   24   12    0    5    5   -0.000032    0.000789
   24   13    0    1    1   -0.000129   -0.000127
   24   13    0    2    1   -0.000053   -0.000166
   24   13    0    3    1   -0.000002   -0.000135
   24   13    0    4    1   -0.000480   -0.000598
   24   13    0    5    1    0.000176    0.001101
   24   13    0    1    2   -0.000145   -0.000043
   24   13    0    2    2   -0.000150   -0.000125
   24   13    0    3    2   -0.000052   -0.000113
   24   13    0    4    2   -0.000673   -0.000732
   24   13    0    5    2    0.000374    0.001207
   24   13    0    1    3   -0.000199   -0.000063
   24   13    0    2    3   -0.000187   -0.000148
   24   13    0    3    3   -0.000093   -0.000143
   24   13    0    4    3   -0.000652   -0.000530
   24   13    0    5    3    0.000578    0.001114
   24   13    0    1    4    0.000623    0.000098
   24   13    0    2    4    0.000080    0.000121
   24   13    0    3    4    0.000189    0.000151
   24   13    0    4    4   -0.000414   -0.000604
   24   13    0    5    4    0.000568    0.000151
   24   13    0    1    5   -0.000595   -0.000079
   24   13    0    2    5   -0.000056    0.000133
   24   13    0    3    5   -0.000282   -0.000040
   24   13    0    4    5   -0.002986    0.000921
   24   13    0    5    5    0.000767    0.000999
   24   14    0    1    1    0.000013   -0.000126
   24   14    0    2    1    0.000090   -0.000097
   24   14    0    3    1    0.000082   -0.000051
   24   14    0    4    1   -0.000392   -0.000399
   24   14    0    5    1    0.000190    0.000577
   24   14    0    1    2   -0.000061   -0.000120
   24   14    0    2    2    0.000001   -0.000142
   24   14    0    3    2    0.000052   -0.000096
   24   14    0    4    2   -0.000436   -0.000516
   24   14    0    5    2    0.000146    0.000856
   24   14    0    1    3   -0.000096   -0.000140
   24   14    0    2    3   -0.000001   -0.000164
   24   14    0    3    3    0.000028   -0.000135
   24   14    0    4    3   -0.000371   -0.000484
   24   14    0    5    3    0.000219    0.000974
   24   14    0    1    4   -0.000041    0.000050
   24   14    0    2    4   -0.000220   -0.000030
   24   14    0    3    4   -0.000086    0.000047
   24   14    0    4    4   -0.001260   -0.000166
   24   14    0    5    4   -0.000431    0.001583
   24   14    0    1    5   -0.000036    0.000162
   24   14    0    2    5    0.000151    0.000314
   24   14    0    3    5   -0.000002    0.000138
   24   14    0    4    5   -0.002158   -0.000344
   24   14    0    5    5    0.001267    0.000570
   24   15    0    1    1    0.000092   -0.000043
   24   15    0    2    1    0.000083    0.000013
   24   15    0    3    1    0.000042    0.000064
   24   15    0    4    1   -0.000466   -0.000135
   24   15    0    5    1    0.000442   -0.000120
   24   15    0    1    2    0.000061   -0.000095
   24   15    0    2    2    0.000089   -0.000046
   24   15    0    3    2    0.000091    0.000012
   24   15    0    4    2   -0.000451   -0.000180
   24   15    0    5    2    0.000331    0.000122
   24   15    0    1    3    0.000048   -0.000125
   24   15    0    2    3    0.000110   -0.000084
   24   15    0    3    3    0.000085   -0.000042
   24   15    0    4    3   -0.000341   -0.000333
   24   15    0    5    3    0.000243    0.000437
   24   15    0    1    4   -0.000142   -0.000032
   24   15    0    2    4   -0.000071   -0.000048
   24   15    0    3    4    0.000058   -0.000004
   24   15    0    4    4   -0.001540    0.000042
   24   15    0    5    4   -0.001320    0.001977
   24   15    0    1    5    0.000090    0.000263
   24   15    0    2    5   -0.000039    0.000193
   24   15    0    3    5   -0.000086    0.000115
   24   15    0    4    5   -0.000565   -0.001922
   24   15    0    5    5    0.001364    0.000089
   24   16    0    1    1    0.000016    0.000060
   24   16    0    2    1   -0.000064    0.000077
   24   16    0    3    1   -0.000121    0.000134
   24   16    0    4    1   -0.000406    0.000153
   24   16    0    5    1    0.000404   -0.000601
   24   16    0    1    2    0.000080    0.000016
   24   16    0    2    2    0.000010    0.000075
   24   16    0    3    2   -0.000018    0.000134
   24   16    0    4    2   -0.000539    0.000159
   24   16    0    5    2    0.000590   -0.000549
   24   16    0    1    3    0.000092   -0.000033
   24   16    0    2    3    0.000070    0.000023
   24   16    0    3    3    0.000006    0.000076
   24   16    0    4    3   -0.000397   -0.000119
   24   16    0    5    3    0.000333   -0.000167
   24   16    0    1    4    0.000056   -0.000041
   24   16    0    2    4    0.000017    0.000091
   24   16    0    3    4    0.000117    0.000046
   24   16    0    4    4   -0.001079   -0.000146
   24   16    0    5    4   -0.001656    0.000602
   24   16    0    1    5   -0.000094    0.000106
   24   16    0    2    5   -0.000210   -0.000190
   24   16    0    3    5   -0.000155   -0.000111
   24   16    0    4    5    0.000750   -0.002253
   24   16    0    5    5    0.001146   -0.000065
   25   10    0    1    1    0.000136    0.000197
   25   10    0    2    1   -0.000139    0.000238
   25   10    0    3    1   -0.000010    0.000156
   25   10    0    4    1   -0.001183    0.000454
   25   10    0    5    1    0.001836   -0.000641
   25   10    0    1    2    0.000340    0.000095
   25   10    0    2    2    0.000151    0.000281
   25   10    0    3    2    0.000227    0.000144
   25   10    0    4    2   -0.000828    0.000707
   25   10    0    5    2    0.001195   -0.000825
   25   10    0    1    3    0.000230    0.000148
   25   10    0    2    3    0.000015    0.000261
   25   10    0    3    3    0.000087    0.000172
   25   10    0    4    3   -0.000996    0.000758
   25   10    0    5    3    0.001591   -0.000955
   25   10    0    1    4    0.000730   -0.000536
   25   10    0    2    4    0.001424   -0.000299
   25   10    0    3    4    0.001378   -0.000397
   25   10    0    4    4    0.000301    0.001646
   25   10    0    5    4   -0.000538    0.002706
   25   10    0    1    5   -0.000309    0.000087
   25   10    0    2    5   -0.000803   -0.000167
   25   10    0    3    5   -0.000726   -0.000017
   25   10    0    4    5    0.002245   -0.002853
   25   10    0    5    5   -0.000506   -0.002296
   25   11    0    1    1   -0.000118    0.000162
   25   11    0    2    1   -0.000347    0.000089
   25   11    0    3    1   -0.000204    0.000046
   25   11    0    4    1   -0.001149    0.000087
   25   11    0    5    1    0.001682   -0.000088
   25   11    0    1    2    0.000141    0.000193
   25   11    0    2    2   -0.000146    0.000251
   25   11    0    3    2   -0.000003    0.000143
   25   11    0    4    2   -0.001315    0.000210
   25   11    0    5    2    0.001749   -0.000367
   25   11    0    1    3    0.000009    0.000194
   25   11    0    2    3   -0.000257    0.000193
   25   11    0    3    3   -0.000130    0.000132
   25   11    0    4    3   -0.001254    0.000471
   25   11    0    5    3    0.001923   -0.000685
   25   11    0    1    4    0.001625   -0.000294
   25   11    0    2    4    0.001482    0.000091
   25   11    0    3    4    0.001742   -0.000103
   25   11    0    4    4    0.001201    0.000941
   25   11    0    5    4    0.001309    0.000223
   25   11    0    1    5   -0.001011   -0.000159
   25   11    0    2    5   -0.000885   -0.000321
   25   11    0    3    5   -0.001138   -0.000185
   25   11    0    4    5   -0.000122   -0.000776
   25   11    0    5    5   -0.000735   -0.001486
   25   12    0    1    1   -0.000287    0.000040
   25   12    0    2    1   -0.000354   -0.000082
   25   12    0    3    1   -0.000245   -0.000088
   25   12    0    4    1   -0.000711   -0.000176
   25   12    0    5    1    0.000925    0.000548
   25   12    0    1    2   -0.000119    0.000162
   25   12    0    2    2   -0.000337    0.000088
   25   12    0    3    2   -0.000178    0.000035
   25   12    0    4    2   -0.001203   -0.000225
   25   12    0    5    2    0.001510    0.000355
   25   12    0    1    3   -0.000227    0.000137
   25   12    0    2    3   -0.000395    0.000041
   25   12    0    3    3   -0.000270    0.000015
   25   12    0    4    3   -0.000971    0.000191
   25   12    0    5    3    0.001474   -0.000114
   25   12    0    1    4    0.001539   -0.000041
   25   12    0    2    4    0.000730    0.000242
   25   12    0    3    4    0.001214    0.000079
   25   12    0    4    4    0.001547   -0.000021
   25   12    0    5    4    0.002674   -0.001293
   25   12    0    1    5   -0.001048   -0.000230
   25   12    0    2    5   -0.000381   -0.000194
   25   12    0    3    5   -0.000869   -0.000156
   25   12    0    4    5   -0.002865    0.001440
   25   12    0    5    5   -0.000659   -0.000123
   25   13    0    1    1   -0.000264   -0.000088
   25   13    0    2    1   -0.000170   -0.000174
   25   13    0    3    1   -0.000123   -0.000162
   25   13    0    4    1   -0.000234   -0.000333
   25   13    0    5    1    0.000159    0.000932
   25   13    0    1    2   -0.000260    0.000031
   25   13    0    2    2   -0.000306   -0.000097
   25   13    0    3    2   -0.000188   -0.000098
   25   13    0    4    2   -0.000743   -0.000471
   25   13    0    5    2    0.000816    0.000964
   25   13    0    1    3   -0.000323    0.000014
   25   13    0    2    3   -0.000321   -0.000107
   25   13    0    3    3   -0.000240   -0.000107
   25   13    0    4    3   -0.000418   -0.000031
   25   13    0    5    3    0.000641    0.000483
   25   13    0    1    4    0.000722    0.000076
   25   13    0    2    4   -0.000195    0.000120
   25   13    0    3    4    0.000368    0.000082
   25   13    0    4    4    0.001098   -0.000544
   25   13    0    5    4    0.002874   -0.000908
   25   13    0    1    5   -0.000485   -0.000085
   25   13    0    2    5    0.000299    0.000130
   25   13    0    3    5   -0.000267    0.000029
   25   13    0    4    5   -0.004558    0.002275
   25   13    0    5    5   -0.000295    0.000837
   25   14    0    1    1   -0.000085   -0.000148
   25   14    0    2    1    0.000066   -0.000151
   25   14    0    3    1    0.000047   -0.000136
   25   14    0    4    1   -0.000028   -0.000411
   25   14    0    5    1   -0.000126    0.000862
   25   14    0    1    2   -0.000202   -0.000106
   25   14    0    2    2   -0.000106   -0.000190
   25   14    0    3    2   -0.000060   -0.000159
   25   14    0    4    2   -0.000330   -0.000522
   25   14    0    5    2    0.000222    0.001108
   25   14    0    1    3   -0.000228   -0.000102
   25   14    0    2    3   -0.000095   -0.000169
   25   14    0    3    3   -0.000075   -0.000163
   25   14    0    4    3    0.000023   -0.000204
   25   14    0    5    3   -0.000005    0.000792
   25   14    0    1    4   -0.000114    0.000034
   25   14    0    2    4   -0.000625   -0.000103
   25   14    0    3    4   -0.000143   -0.000017
   25   14    0    4    4    0.000093   -0.000488
   25   14    0    5    4    0.001933    0.000788
   25   14    0    1    5    0.000168    0.000164
   25   14    0    2    5    0.000609    0.000407
   25   14    0    3    5    0.000132    0.000210
   25   14    0    4    5   -0.004386    0.001211
   25   14    0    5    5    0.000244    0.000990
   25   15    0    1    1    0.000096   -0.000115
   25   15    0    2    1    0.000187   -0.000059
   25   15    0    3    1    0.000117   -0.000042
   25   15    0    4    1   -0.000144   -0.000413
   25   15    0    5    1    0.000083    0.000425
   25   15    0    1    2   -0.000025   -0.000157
   25   15    0    2    2    0.000090   -0.000152
   25   15    0    3    2    0.000074   -0.000108
   25   15    0    4    2   -0.000212   -0.000432
   25   15    0    5    2    0.000077    0.000722
   25   15    0    1    3   -0.000022   -0.000146
   25   15    0    2    3    0.000131   -0.000130
   25   15    0    3    3    0.000087   -0.000127
   25   15    0    4    3    0.000111   -0.000340
   25   15    0    5    3   -0.000138    0.000690
   25   15    0    1    4   -0.000398   -0.000070
   25   15    0    2    4   -0.000389   -0.000205
   25   15    0    3    4   -0.000114   -0.000074
   25   15    0    4    4   -0.000880   -0.000265
   25   15    0    5    4    0.000522    0.002193
   25   15    0    1    5    0.000393    0.000319
   25   15    0    2    5    0.000332    0.000397
   25   15    0    3    5    0.000070    0.000204
   25   15    0    4    5   -0.002775   -0.000888
   25   15    0    5    5    0.000777    0.000659
   26   12    0    1    1   -0.000350    0.000109
   26   12    0    2    1   -0.000429   -0.000036
   26   12    0    3    1   -0.000363   -0.000010
   26   12    0    4    1   -0.000471    0.000375
   26   12    0    5    1    0.000888   -0.000279
   26   12    0    1    2   -0.000164    0.000232
   26   12    0    2    2   -0.000412    0.000148
   26   12    0    3    2   -0.000277    0.000127
   26   12    0    4    2   -0.001148    0.000310
   26   12    0    5    2    0.001735   -0.000458
   26   12    0    1    3   -0.000244    0.000182
   26   12    0    2    3   -0.000414    0.000077
   26   12    0    3    3   -0.000349    0.000098
   26   12    0    4    3   -0.000765    0.000568
   26   12    0    5    3    0.001360   -0.000814
   26   12    0    1    4    0.001133   -0.000019
   26   12    0    2    4    0.000277    0.000324
   26   12    0    3    4    0.000897    0.000004
   26   12    0    4    4    0.001390    0.000777
   26   12    0    5    4    0.003003   -0.002431
   26   12    0    1    5   -0.000693   -0.000312
   26   12    0    2    5   -0.000039   -0.000344
   26   12    0    3    5   -0.000542   -0.000153
   26   12    0    4    5   -0.002052    0.002367
   26   12    0    5    5   -0.000277   -0.001132
   26   13    0    1    1   -0.000375   -0.000023
   26   13    0    2    1   -0.000267   -0.000143
   26   13    0    3    1   -0.000254   -0.000119
   26   13    0    4    1    0.000206    0.000215
   26   13    0    5    1   -0.000156    0.000259
   26   13    0    1    2   -0.000356    0.000115
   26   13    0    2    2   -0.000430   -0.000047
   26   13    0    3    2   -0.000330   -0.000029
   26   13    0    4    2   -0.000548    0.000061
   26   13    0    5    2    0.000887    0.000255
   26   13    0    1    3   -0.000390    0.000082
   26   13    0    2    3   -0.000390   -0.000060
   26   13    0    3    3   -0.000366   -0.000027
   26   13    0    4    3   -0.000058    0.000490
   26   13    0    5    3    0.000361   -0.000336
   26   13    0    1    4    0.000371    0.000099
   26   13    0    2    4   -0.000726    0.000170
   26   13    0    3    4    0.000042   -0.000001
   26   13    0    4    4    0.001788    0.000002
   26   13    0    5    4    0.003974   -0.002471
   26   13    0    1    5   -0.000140   -0.000170
   26   13    0    2    5    0.000716    0.000021
   26   13    0    3    5    0.000096    0.000071
   26   13    0    4    5   -0.004402    0.003543
   26   13    0    5    5   -0.000608    0.000095
   26   14    0    1    1   -0.000194   -0.000110
   26   14    0    2    1    0.000011   -0.000142
   26   14    0    3    1   -0.000028   -0.000144
   26   14    0    4    1    0.000587   -0.000018
   26   14    0    5    1   -0.000726    0.000565
   26   14    0    1    2   -0.000336   -0.000045
   26   14    0    2    2   -0.000220   -0.000180
   26   14    0    3    2   -0.000192   -0.000150
   26   14    0    4    2    0.000058   -0.000130
   26   14    0    5    2   -0.000010    0.000769
   26   14    0    1    3   -0.000333   -0.000033
   26   14    0    2    3   -0.000175   -0.000129
   26   14    0    3    3   -0.000196   -0.000115
   26   14    0    4    3    0.000577    0.000323
   26   14    0    5    3   -0.000549    0.000144
   26   14    0    1    4   -0.000546    0.000036
   26   14    0    2    4   -0.001264   -0.000137
   26   14    0    3    4   -0.000565   -0.000127
   26   14    0    4    4    0.001210   -0.000312
   26   14    0    5    4    0.003545   -0.000745
   26   14    0    1    5    0.000595    0.000126
   26   14    0    2    5    0.001163    0.000422
   26   14    0    3    5    0.000595    0.000317
   26   14    0    4    5   -0.004956    0.002910
   26   14    0    5    5   -0.000598    0.000717
